116
Lattice="100.0 0.0 0.0 0.0 100.0 0.0 0.0 0.0 100.0" Properties=species:S:1:pos:R:3:forces:R:3 energy=-468.5978291486791 free_energy=-468.5978291486791 pbc="T T T"
Pd      44.16999099      46.11869635      50.00000000       0.00949385       0.01045739       0.00000000
Pd      46.11869635      44.16999099      50.00000000       0.01045739       0.00949385      -0.00000000
Pd      46.00417307      46.00417307      47.93527862       0.02087365       0.02087365       0.02962955
Pd      46.00417307      46.00417307      52.06472138       0.02087365       0.02087365      -0.02962955
Pd      44.16999099      50.00000000      46.11869635       0.00949385       0.00000000       0.01045739
Pd      46.00417307      47.93527862      46.00417307       0.02087365       0.02962955       0.02087365
Pd      46.11869635      50.00000000      44.16999099       0.01045739      -0.00000000       0.00949385
Pd      44.14278534      48.05973334      48.05973334      -0.01124345      -0.01345593      -0.01345593
Pd      44.07450629      50.00000000      50.00000000      -0.04795084      -0.00000000      -0.00000000
Pd      46.09213456      48.02466355      50.00000000       0.00220695       0.02979313       0.00000000
Pd      46.09213456      50.00000000      48.02466355       0.00220695       0.00000000       0.02979313
Pd      44.14278534      48.05973334      51.94026666      -0.01124345      -0.01345593       0.01345593
Pd      44.16999099      50.00000000      53.88130365       0.00949385      -0.00000000      -0.01045739
Pd      46.00417307      47.93527862      53.99582693       0.02087365       0.02962955      -0.02087365
Pd      46.09213456      50.00000000      51.97533645       0.00220695      -0.00000000      -0.02979313
Pd      46.11869635      50.00000000      55.83000901       0.01045739       0.00000000      -0.00949385
Pd      46.00417307      52.06472138      46.00417307       0.02087365      -0.02962955       0.02087365
Pd      44.14278534      51.94026666      48.05973334      -0.01124345       0.01345593      -0.01345593
Pd      44.16999099      53.88130365      50.00000000       0.00949385      -0.01045739      -0.00000000
Pd      46.09213456      51.97533645      50.00000000       0.00220695      -0.02979313       0.00000000
Pd      46.00417307      53.99582693      47.93527862       0.02087365      -0.02087365       0.02962955
Pd      44.14278534      51.94026666      51.94026666      -0.01124345       0.01345593       0.01345593
Pd      46.00417307      52.06472138      53.99582693       0.02087365      -0.02962955      -0.02087365
Pd      46.00417307      53.99582693      52.06472138       0.02087365      -0.02087365      -0.02962955
Pd      46.11869635      55.83000901      50.00000000       0.01045739      -0.00949385       0.00000000
Pd      47.93527862      46.00417307      46.00417307       0.02962955       0.02087365       0.02087365
Pd      50.00000000      44.16999099      46.11869635       0.00000000       0.00949385       0.01045739
Pd      50.00000000      46.11869635      44.16999099       0.00000000       0.01045739       0.00949385
Pd      48.05973334      44.14278534      48.05973334      -0.01345593      -0.01124345      -0.01345593
Pd      48.02466355      46.09213456      50.00000000       0.02979313       0.00220695      -0.00000000
Pd      50.00000000      44.07450629      50.00000000      -0.00000000      -0.04795084      -0.00000000
Pd      50.00000000      46.09213456      48.02466355       0.00000000       0.00220695       0.02979313
Pd      48.05973334      44.14278534      51.94026666      -0.01345593      -0.01124345       0.01345593
Pd      47.93527862      46.00417307      53.99582693       0.02962955       0.02087365      -0.02087365
Pd      50.00000000      44.16999099      53.88130365      -0.00000000       0.00949385      -0.01045739
Pd      50.00000000      46.09213456      51.97533645      -0.00000000       0.00220695      -0.02979313
Pd      50.00000000      46.11869635      55.83000901      -0.00000000       0.01045739      -0.00949385
Pd      48.05973334      48.05973334      44.14278534      -0.01345593      -0.01345593      -0.01124345
Pd      48.02466355      50.00000000      46.09213456       0.02979313      -0.00000000       0.00220695
Pd      50.00000000      48.02466355      46.09213456       0.00000000       0.02979313       0.00220695
Pd      50.00000000      50.00000000      44.07450629      -0.00000000      -0.00000000      -0.04795084
Pd      48.01893556      48.01893556      48.01893556      -0.02306382      -0.02306382      -0.02306382
Pd      48.04070711      50.00000000      50.00000000       0.01698468       0.00000000      -0.00000000
Pd      50.00000000      48.04070711      50.00000000       0.00000000       0.01698468       0.00000000
Pd      50.00000000      50.00000000      48.04070711      -0.00000000       0.00000000       0.01698468
Pd      48.01893556      48.01893556      51.98106444      -0.02306382      -0.02306382       0.02306382
Pd      48.02466355      50.00000000      53.90786544       0.02979313      -0.00000000      -0.00220695
Pd      50.00000000      48.02466355      53.90786544      -0.00000000       0.02979313      -0.00220695
Pd      50.00000000      50.00000000      51.95929289       0.00000000       0.00000000      -0.01698468
Pd      48.05973334      48.05973334      55.85721466      -0.01345593      -0.01345593       0.01124345
Pd      50.00000000      50.00000000      55.92549371      -0.00000000      -0.00000000       0.04795084
Pd      48.05973334      51.94026666      44.14278534      -0.01345593       0.01345593      -0.01124345
Pd      47.93527862      53.99582693      46.00417307       0.02962955      -0.02087365       0.02087365
Pd      50.00000000      51.97533645      46.09213456      -0.00000000      -0.02979313       0.00220695
Pd      50.00000000      53.88130365      44.16999099      -0.00000000      -0.01045739       0.00949385
Pd      48.01893556      51.98106444      48.01893556      -0.02306382       0.02306382      -0.02306382
Pd      48.02466355      53.90786544      50.00000000       0.02979313      -0.00220695       0.00000000
Pd      50.00000000      51.95929289      50.00000000       0.00000000      -0.01698468       0.00000000
Pd      50.00000000      53.90786544      48.02466355       0.00000000      -0.00220695       0.02979313
Pd      48.01893556      51.98106444      51.98106444      -0.02306382       0.02306382       0.02306382
Pd      47.93527862      53.99582693      53.99582693       0.02962955      -0.02087365      -0.02087365
Pd      50.00000000      51.97533645      53.90786544       0.00000000      -0.02979313      -0.00220695
Pd      50.00000000      53.90786544      51.97533645      -0.00000000      -0.00220695      -0.02979313
Pd      48.05973334      51.94026666      55.85721466      -0.01345593       0.01345593       0.01124345
Pd      50.00000000      53.88130365      55.83000901       0.00000000      -0.01045739      -0.00949385
Pd      50.00000000      55.83000901      46.11869635       0.00000000      -0.00949385       0.01045739
Pd      48.05973334      55.85721466      48.05973334      -0.01345593       0.01124345      -0.01345593
Pd      50.00000000      55.92549371      50.00000000      -0.00000000       0.04795084      -0.00000000
Pd      48.05973334      55.85721466      51.94026666      -0.01345593       0.01124345       0.01345593
Pd      50.00000000      55.83000901      53.88130365      -0.00000000      -0.00949385      -0.01045739
Pd      52.06472138      46.00417307      46.00417307      -0.02962955       0.02087365       0.02087365
Pd      51.94026666      44.14278534      48.05973334       0.01345593      -0.01124345      -0.01345593
Pd      51.97533645      46.09213456      50.00000000      -0.02979313       0.00220695       0.00000000
Pd      53.88130365      44.16999099      50.00000000      -0.01045739       0.00949385       0.00000000
Pd      53.99582693      46.00417307      47.93527862      -0.02087365       0.02087365       0.02962955
Pd      51.94026666      44.14278534      51.94026666       0.01345593      -0.01124345       0.01345593
Pd      52.06472138      46.00417307      53.99582693      -0.02962955       0.02087365      -0.02087365
Pd      53.99582693      46.00417307      52.06472138      -0.02087365       0.02087365      -0.02962955
Pd      51.94026666      48.05973334      44.14278534       0.01345593      -0.01345593      -0.01124345
Pd      51.97533645      50.00000000      46.09213456      -0.02979313       0.00000000       0.00220695
Pd      53.99582693      47.93527862      46.00417307      -0.02087365       0.02962955       0.02087365
Pd      53.88130365      50.00000000      44.16999099      -0.01045739       0.00000000       0.00949385
Pd      51.98106444      48.01893556      48.01893556       0.02306382      -0.02306382      -0.02306382
Pd      51.95929289      50.00000000      50.00000000      -0.01698468       0.00000000      -0.00000000
Pd      53.90786544      48.02466355      50.00000000      -0.00220695       0.02979313      -0.00000000
Pd      53.90786544      50.00000000      48.02466355      -0.00220695      -0.00000000       0.02979313
Pd      51.98106444      48.01893556      51.98106444       0.02306382      -0.02306382       0.02306382
Pd      51.97533645      50.00000000      53.90786544      -0.02979313       0.00000000      -0.00220695
Pd      53.99582693      47.93527862      53.99582693      -0.02087365       0.02962955      -0.02087365
Pd      53.90786544      50.00000000      51.97533645      -0.00220695       0.00000000      -0.02979313
Pd      51.94026666      48.05973334      55.85721466       0.01345593      -0.01345593       0.01124345
Pd      53.88130365      50.00000000      55.83000901      -0.01045739      -0.00000000      -0.00949385
Pd      51.94026666      51.94026666      44.14278534       0.01345593       0.01345593      -0.01124345
Pd      52.06472138      53.99582693      46.00417307      -0.02962955      -0.02087365       0.02087365
Pd      53.99582693      52.06472138      46.00417307      -0.02087365      -0.02962955       0.02087365
Pd      51.98106444      51.98106444      48.01893556       0.02306382       0.02306382      -0.02306382
Pd      51.97533645      53.90786544      50.00000000      -0.02979313      -0.00220695      -0.00000000
Pd      53.90786544      51.97533645      50.00000000      -0.00220695      -0.02979313      -0.00000000
Pd      53.99582693      53.99582693      47.93527862      -0.02087365      -0.02087365       0.02962955
Pd      51.98106444      51.98106444      51.98106444       0.02306382       0.02306382       0.02306382
Pd      52.06472138      53.99582693      53.99582693      -0.02962955      -0.02087365      -0.02087365
Pd      53.99582693      52.06472138      53.99582693      -0.02087365      -0.02962955      -0.02087365
Pd      53.99582693      53.99582693      52.06472138      -0.02087365      -0.02087365      -0.02962955
Pd      51.94026666      51.94026666      55.85721466       0.01345593       0.01345593       0.01124345
Pd      51.94026666      55.85721466      48.05973334       0.01345593       0.01124345      -0.01345593
Pd      53.88130365      55.83000901      50.00000000      -0.01045739      -0.00949385      -0.00000000
Pd      51.94026666      55.85721466      51.94026666       0.01345593       0.01124345       0.01345593
Pd      55.83000901      46.11869635      50.00000000      -0.00949385       0.01045739      -0.00000000
Pd      55.83000901      50.00000000      46.11869635      -0.00949385      -0.00000000       0.01045739
Pd      55.85721466      48.05973334      48.05973334       0.01124345      -0.01345593      -0.01345593
Pd      55.92549371      50.00000000      50.00000000       0.04795084      -0.00000000      -0.00000000
Pd      55.85721466      48.05973334      51.94026666       0.01124345      -0.01345593       0.01345593
Pd      55.83000901      50.00000000      53.88130365      -0.00949385       0.00000000      -0.01045739
Pd      55.85721466      51.94026666      48.05973334       0.01124345       0.01345593      -0.01345593
Pd      55.83000901      53.88130365      50.00000000      -0.00949385      -0.01045739       0.00000000
Pd      55.85721466      51.94026666      51.94026666       0.01124345       0.01345593       0.01345593
