116
Lattice="100.0 0.0 0.0 0.0 100.0 0.0 0.0 0.0 100.0" Properties=species:S:1:pos:R:3:forces:R:3 energy=-222.217332137178 free_energy=-222.217332137178 pbc="T T T"
Ag      43.84286976      45.89754703      50.00000000       0.00946001      -0.01485255      -0.00000000
Ag      45.89754703      43.84286976      50.00000000      -0.01485255       0.00946001      -0.00000000
Ag      45.77419771      45.77419771      47.82772241       0.01670719       0.01670719      -0.00365686
Ag      45.77419771      45.77419771      52.17227759       0.01670719       0.01670719       0.00365686
Ag      43.84286976      50.00000000      45.89754703       0.00946001      -0.00000000      -0.01485255
Ag      45.77419771      47.82772241      45.77419771       0.01670719      -0.00365686       0.01670719
Ag      45.89754703      50.00000000      43.84286976      -0.01485255       0.00000000       0.00946001
Ag      43.79761779      47.91795390      47.91795390       0.01264055       0.00957477       0.00957477
Ag      43.72650268      50.00000000      50.00000000      -0.00005593       0.00000000       0.00000000
Ag      45.84998011      47.92609873      50.00000000       0.01142498       0.00228623      -0.00000000
Ag      45.84998011      50.00000000      47.92609873       0.01142498      -0.00000000       0.00228623
Ag      43.79761779      47.91795390      52.08204610       0.01264055       0.00957477      -0.00957477
Ag      43.84286976      50.00000000      54.10245297       0.00946001      -0.00000000       0.01485255
Ag      45.77419771      47.82772241      54.22580229       0.01670719      -0.00365686      -0.01670719
Ag      45.84998011      50.00000000      52.07390127       0.01142498       0.00000000      -0.00228623
Ag      45.89754703      50.00000000      56.15713024      -0.01485255      -0.00000000      -0.00946001
Ag      45.77419771      52.17227759      45.77419771       0.01670719       0.00365686       0.01670719
Ag      43.79761779      52.08204610      47.91795390       0.01264055      -0.00957477       0.00957477
Ag      43.84286976      54.10245297      50.00000000       0.00946001       0.01485255       0.00000000
Ag      45.84998011      52.07390127      50.00000000       0.01142498      -0.00228623       0.00000000
Ag      45.77419771      54.22580229      47.82772241       0.01670719      -0.01670719      -0.00365686
Ag      43.79761779      52.08204610      52.08204610       0.01264055      -0.00957477      -0.00957477
Ag      45.77419771      52.17227759      54.22580229       0.01670719       0.00365686      -0.01670719
Ag      45.77419771      54.22580229      52.17227759       0.01670719      -0.01670719       0.00365686
Ag      45.89754703      56.15713024      50.00000000      -0.01485255      -0.00946001       0.00000000
Ag      47.82772241      45.77419771      45.77419771      -0.00365686       0.01670719       0.01670719
Ag      50.00000000      43.84286976      45.89754703      -0.00000000       0.00946001      -0.01485255
Ag      50.00000000      45.89754703      43.84286976       0.00000000      -0.01485255       0.00946001
Ag      47.91795390      43.79761779      47.91795390       0.00957477       0.01264055       0.00957477
Ag      47.92609873      45.84998011      50.00000000       0.00228623       0.01142498      -0.00000000
Ag      50.00000000      43.72650268      50.00000000       0.00000000      -0.00005593       0.00000000
Ag      50.00000000      45.84998011      47.92609873      -0.00000000       0.01142498       0.00228623
Ag      47.91795390      43.79761779      52.08204610       0.00957477       0.01264055      -0.00957477
Ag      47.82772241      45.77419771      54.22580229      -0.00365686       0.01670719      -0.01670719
Ag      50.00000000      43.84286976      54.10245297      -0.00000000       0.00946001       0.01485255
Ag      50.00000000      45.84998011      52.07390127       0.00000000       0.01142498      -0.00228623
Ag      50.00000000      45.89754703      56.15713024      -0.00000000      -0.01485255      -0.00946001
Ag      47.91795390      47.91795390      43.79761779       0.00957477       0.00957477       0.01264055
Ag      47.92609873      50.00000000      45.84998011       0.00228623       0.00000000       0.01142498
Ag      50.00000000      47.92609873      45.84998011       0.00000000       0.00228623       0.01142498
Ag      50.00000000      50.00000000      43.72650268      -0.00000000      -0.00000000      -0.00005593
Ag      47.90305538      47.90305538      47.90305538      -0.01863344      -0.01863344      -0.01863344
Ag      47.92298156      50.00000000      50.00000000       0.00858703       0.00000000       0.00000000
Ag      50.00000000      47.92298156      50.00000000       0.00000000       0.00858703       0.00000000
Ag      50.00000000      50.00000000      47.92298156      -0.00000000      -0.00000000       0.00858703
Ag      47.90305538      47.90305538      52.09694462      -0.01863344      -0.01863344       0.01863344
Ag      47.92609873      50.00000000      54.15001989       0.00228623      -0.00000000      -0.01142498
Ag      50.00000000      47.92609873      54.15001989      -0.00000000       0.00228623      -0.01142498
Ag      50.00000000      50.00000000      52.07701844      -0.00000000      -0.00000000      -0.00858703
Ag      47.91795390      47.91795390      56.20238221       0.00957477       0.00957477      -0.01264055
Ag      50.00000000      50.00000000      56.27349732      -0.00000000      -0.00000000       0.00005593
Ag      47.91795390      52.08204610      43.79761779       0.00957477      -0.00957477       0.01264055
Ag      47.82772241      54.22580229      45.77419771      -0.00365686      -0.01670719       0.01670719
Ag      50.00000000      52.07390127      45.84998011      -0.00000000      -0.00228623       0.01142498
Ag      50.00000000      54.10245297      43.84286976      -0.00000000       0.01485255       0.00946001
Ag      47.90305538      52.09694462      47.90305538      -0.01863344       0.01863344      -0.01863344
Ag      47.92609873      54.15001989      50.00000000       0.00228623      -0.01142498      -0.00000000
Ag      50.00000000      52.07701844      50.00000000       0.00000000      -0.00858703       0.00000000
Ag      50.00000000      54.15001989      47.92609873       0.00000000      -0.01142498       0.00228623
Ag      47.90305538      52.09694462      52.09694462      -0.01863344       0.01863344       0.01863344
Ag      47.82772241      54.22580229      54.22580229      -0.00365686      -0.01670719      -0.01670719
Ag      50.00000000      52.07390127      54.15001989      -0.00000000      -0.00228623      -0.01142498
Ag      50.00000000      54.15001989      52.07390127       0.00000000      -0.01142498      -0.00228623
Ag      47.91795390      52.08204610      56.20238221       0.00957477      -0.00957477      -0.01264055
Ag      50.00000000      54.10245297      56.15713024       0.00000000       0.01485255      -0.00946001
Ag      50.00000000      56.15713024      45.89754703      -0.00000000      -0.00946001      -0.01485255
Ag      47.91795390      56.20238221      47.91795390       0.00957477      -0.01264055       0.00957477
Ag      50.00000000      56.27349732      50.00000000       0.00000000       0.00005593       0.00000000
Ag      47.91795390      56.20238221      52.08204610       0.00957477      -0.01264055      -0.00957477
Ag      50.00000000      56.15713024      54.10245297      -0.00000000      -0.00946001       0.01485255
Ag      52.17227759      45.77419771      45.77419771       0.00365686       0.01670719       0.01670719
Ag      52.08204610      43.79761779      47.91795390      -0.00957477       0.01264055       0.00957477
Ag      52.07390127      45.84998011      50.00000000      -0.00228623       0.01142498       0.00000000
Ag      54.10245297      43.84286976      50.00000000       0.01485255       0.00946001       0.00000000
Ag      54.22580229      45.77419771      47.82772241      -0.01670719       0.01670719      -0.00365686
Ag      52.08204610      43.79761779      52.08204610      -0.00957477       0.01264055      -0.00957477
Ag      52.17227759      45.77419771      54.22580229       0.00365686       0.01670719      -0.01670719
Ag      54.22580229      45.77419771      52.17227759      -0.01670719       0.01670719       0.00365686
Ag      52.08204610      47.91795390      43.79761779      -0.00957477       0.00957477       0.01264055
Ag      52.07390127      50.00000000      45.84998011      -0.00228623      -0.00000000       0.01142498
Ag      54.22580229      47.82772241      45.77419771      -0.01670719      -0.00365686       0.01670719
Ag      54.10245297      50.00000000      43.84286976       0.01485255      -0.00000000       0.00946001
Ag      52.09694462      47.90305538      47.90305538       0.01863344      -0.01863344      -0.01863344
Ag      52.07701844      50.00000000      50.00000000      -0.00858703       0.00000000       0.00000000
Ag      54.15001989      47.92609873      50.00000000      -0.01142498       0.00228623      -0.00000000
Ag      54.15001989      50.00000000      47.92609873      -0.01142498      -0.00000000       0.00228623
Ag      52.09694462      47.90305538      52.09694462       0.01863344      -0.01863344       0.01863344
Ag      52.07390127      50.00000000      54.15001989      -0.00228623      -0.00000000      -0.01142498
Ag      54.22580229      47.82772241      54.22580229      -0.01670719      -0.00365686      -0.01670719
Ag      54.15001989      50.00000000      52.07390127      -0.01142498       0.00000000      -0.00228623
Ag      52.08204610      47.91795390      56.20238221      -0.00957477       0.00957477      -0.01264055
Ag      54.10245297      50.00000000      56.15713024       0.01485255       0.00000000      -0.00946001
Ag      52.08204610      52.08204610      43.79761779      -0.00957477      -0.00957477       0.01264055
Ag      52.17227759      54.22580229      45.77419771       0.00365686      -0.01670719       0.01670719
Ag      54.22580229      52.17227759      45.77419771      -0.01670719       0.00365686       0.01670719
Ag      52.09694462      52.09694462      47.90305538       0.01863344       0.01863344      -0.01863344
Ag      52.07390127      54.15001989      50.00000000      -0.00228623      -0.01142498      -0.00000000
Ag      54.15001989      52.07390127      50.00000000      -0.01142498      -0.00228623      -0.00000000
Ag      54.22580229      54.22580229      47.82772241      -0.01670719      -0.01670719      -0.00365686
Ag      52.09694462      52.09694462      52.09694462       0.01863344       0.01863344       0.01863344
Ag      52.17227759      54.22580229      54.22580229       0.00365686      -0.01670719      -0.01670719
Ag      54.22580229      52.17227759      54.22580229      -0.01670719       0.00365686      -0.01670719
Ag      54.22580229      54.22580229      52.17227759      -0.01670719      -0.01670719       0.00365686
Ag      52.08204610      52.08204610      56.20238221      -0.00957477      -0.00957477      -0.01264055
Ag      52.08204610      56.20238221      47.91795390      -0.00957477      -0.01264055       0.00957477
Ag      54.10245297      56.15713024      50.00000000       0.01485255      -0.00946001      -0.00000000
Ag      52.08204610      56.20238221      52.08204610      -0.00957477      -0.01264055      -0.00957477
Ag      56.15713024      45.89754703      50.00000000      -0.00946001      -0.01485255       0.00000000
Ag      56.15713024      50.00000000      45.89754703      -0.00946001      -0.00000000      -0.01485255
Ag      56.20238221      47.91795390      47.91795390      -0.01264055       0.00957477       0.00957477
Ag      56.27349732      50.00000000      50.00000000       0.00005593       0.00000000       0.00000000
Ag      56.20238221      47.91795390      52.08204610      -0.01264055       0.00957477      -0.00957477
Ag      56.15713024      50.00000000      54.10245297      -0.00946001      -0.00000000       0.01485255
Ag      56.20238221      52.08204610      47.91795390      -0.01264055      -0.00957477       0.00957477
Ag      56.15713024      54.10245297      50.00000000      -0.00946001       0.01485255      -0.00000000
Ag      56.20238221      52.08204610      52.08204610      -0.01264055      -0.00957477      -0.00957477
