116
Lattice="100.0 0.0 0.0 0.0 100.0 0.0 0.0 0.0 100.0" Properties=species:S:1:pos:R:3:forces:R:3 energy=-271.7483300497561 free_energy=-271.7483300497561 pbc="T T T"
Au      44.01952154      45.99859416      50.00000000      -0.00487313       0.00916977      -0.00000000
Au      45.99859416      44.01952154      50.00000000       0.00916977      -0.00487313      -0.00000000
Au      45.60815126      45.60815126      47.61616154      -0.00749769      -0.00749769      -0.02916534
Au      45.60815126      45.60815126      52.38383846      -0.00749769      -0.00749769       0.02916534
Au      44.01952154      50.00000000      45.99859416      -0.00487313       0.00000000       0.00916977
Au      45.60815126      47.61616154      45.60815126      -0.00749769      -0.02916534      -0.00749769
Au      45.99859416      50.00000000      44.01952154       0.00916977      -0.00000000      -0.00487313
Au      43.92782146      47.93261389      47.93261389       0.00681315      -0.00372374      -0.00372374
Au      43.76447628      50.00000000      50.00000000       0.02507805       0.00000000      -0.00000000
Au      45.97349108      47.98125573      50.00000000       0.04275134      -0.02571980       0.00000000
Au      45.97349108      50.00000000      47.98125573       0.04275134      -0.00000000      -0.02571980
Au      43.92782146      47.93261389      52.06738611       0.00681315      -0.00372374       0.00372374
Au      44.01952154      50.00000000      54.00140584      -0.00487313       0.00000000      -0.00916977
Au      45.60815126      47.61616154      54.39184874      -0.00749769      -0.02916534       0.00749769
Au      45.97349108      50.00000000      52.01874427       0.04275134      -0.00000000       0.02571980
Au      45.99859416      50.00000000      55.98047846       0.00916977       0.00000000       0.00487313
Au      45.60815126      52.38383846      45.60815126      -0.00749769       0.02916534      -0.00749769
Au      43.92782146      52.06738611      47.93261389       0.00681315       0.00372374      -0.00372374
Au      44.01952154      54.00140584      50.00000000      -0.00487313      -0.00916977      -0.00000000
Au      45.97349108      52.01874427      50.00000000       0.04275134       0.02571980      -0.00000000
Au      45.60815126      54.39184874      47.61616154      -0.00749769       0.00749769      -0.02916534
Au      43.92782146      52.06738611      52.06738611       0.00681315       0.00372374       0.00372374
Au      45.60815126      52.38383846      54.39184874      -0.00749769       0.02916534       0.00749769
Au      45.60815126      54.39184874      52.38383846      -0.00749769       0.00749769       0.02916534
Au      45.99859416      55.98047846      50.00000000       0.00916977       0.00487313       0.00000000
Au      47.61616154      45.60815126      45.60815126      -0.02916534      -0.00749769      -0.00749769
Au      50.00000000      44.01952154      45.99859416       0.00000000      -0.00487313       0.00916977
Au      50.00000000      45.99859416      44.01952154      -0.00000000       0.00916977      -0.00487313
Au      47.93261389      43.92782146      47.93261389      -0.00372374       0.00681315      -0.00372374
Au      47.98125573      45.97349108      50.00000000      -0.02571980       0.04275134       0.00000000
Au      50.00000000      43.76447628      50.00000000       0.00000000       0.02507805       0.00000000
Au      50.00000000      45.97349108      47.98125573      -0.00000000       0.04275134      -0.02571980
Au      47.93261389      43.92782146      52.06738611      -0.00372374       0.00681315       0.00372374
Au      47.61616154      45.60815126      54.39184874      -0.02916534      -0.00749769       0.00749769
Au      50.00000000      44.01952154      54.00140584       0.00000000      -0.00487313      -0.00916977
Au      50.00000000      45.97349108      52.01874427      -0.00000000       0.04275134       0.02571980
Au      50.00000000      45.99859416      55.98047846       0.00000000       0.00916977       0.00487313
Au      47.93261389      47.93261389      43.92782146      -0.00372374      -0.00372374       0.00681315
Au      47.98125573      50.00000000      45.97349108      -0.02571980      -0.00000000       0.04275134
Au      50.00000000      47.98125573      45.97349108      -0.00000000      -0.02571980       0.04275134
Au      50.00000000      50.00000000      43.76447628       0.00000000      -0.00000000       0.02507805
Au      47.76704962      47.76704962      47.76704962       0.00608460       0.00608460       0.00608460
Au      47.99286974      50.00000000      50.00000000      -0.04014732      -0.00000000       0.00000000
Au      50.00000000      47.99286974      50.00000000      -0.00000000      -0.04014732       0.00000000
Au      50.00000000      50.00000000      47.99286974       0.00000000       0.00000000      -0.04014732
Au      47.76704962      47.76704962      52.23295038       0.00608460       0.00608460      -0.00608460
Au      47.98125573      50.00000000      54.02650892      -0.02571980      -0.00000000      -0.04275134
Au      50.00000000      47.98125573      54.02650892      -0.00000000      -0.02571980      -0.04275134
Au      50.00000000      50.00000000      52.00713026      -0.00000000      -0.00000000       0.04014732
Au      47.93261389      47.93261389      56.07217854      -0.00372374      -0.00372374      -0.00681315
Au      50.00000000      50.00000000      56.23552372       0.00000000       0.00000000      -0.02507805
Au      47.93261389      52.06738611      43.92782146      -0.00372374       0.00372374       0.00681315
Au      47.61616154      54.39184874      45.60815126      -0.02916534       0.00749769      -0.00749769
Au      50.00000000      52.01874427      45.97349108       0.00000000       0.02571980       0.04275134
Au      50.00000000      54.00140584      44.01952154      -0.00000000      -0.00916977      -0.00487313
Au      47.76704962      52.23295038      47.76704962       0.00608460      -0.00608460       0.00608460
Au      47.98125573      54.02650892      50.00000000      -0.02571980      -0.04275134      -0.00000000
Au      50.00000000      52.00713026      50.00000000       0.00000000       0.04014732      -0.00000000
Au      50.00000000      54.02650892      47.98125573       0.00000000      -0.04275134      -0.02571980
Au      47.76704962      52.23295038      52.23295038       0.00608460      -0.00608460      -0.00608460
Au      47.61616154      54.39184874      54.39184874      -0.02916534       0.00749769       0.00749769
Au      50.00000000      52.01874427      54.02650892       0.00000000       0.02571980      -0.04275134
Au      50.00000000      54.02650892      52.01874427       0.00000000      -0.04275134       0.02571980
Au      47.93261389      52.06738611      56.07217854      -0.00372374       0.00372374      -0.00681315
Au      50.00000000      54.00140584      55.98047846      -0.00000000      -0.00916977       0.00487313
Au      50.00000000      55.98047846      45.99859416      -0.00000000       0.00487313       0.00916977
Au      47.93261389      56.07217854      47.93261389      -0.00372374      -0.00681315      -0.00372374
Au      50.00000000      56.23552372      50.00000000      -0.00000000      -0.02507805       0.00000000
Au      47.93261389      56.07217854      52.06738611      -0.00372374      -0.00681315       0.00372374
Au      50.00000000      55.98047846      54.00140584      -0.00000000       0.00487313      -0.00916977
Au      52.38383846      45.60815126      45.60815126       0.02916534      -0.00749769      -0.00749769
Au      52.06738611      43.92782146      47.93261389       0.00372374       0.00681315      -0.00372374
Au      52.01874427      45.97349108      50.00000000       0.02571980       0.04275134      -0.00000000
Au      54.00140584      44.01952154      50.00000000      -0.00916977      -0.00487313      -0.00000000
Au      54.39184874      45.60815126      47.61616154       0.00749769      -0.00749769      -0.02916534
Au      52.06738611      43.92782146      52.06738611       0.00372374       0.00681315       0.00372374
Au      52.38383846      45.60815126      54.39184874       0.02916534      -0.00749769       0.00749769
Au      54.39184874      45.60815126      52.38383846       0.00749769      -0.00749769       0.02916534
Au      52.06738611      47.93261389      43.92782146       0.00372374      -0.00372374       0.00681315
Au      52.01874427      50.00000000      45.97349108       0.02571980       0.00000000       0.04275134
Au      54.39184874      47.61616154      45.60815126       0.00749769      -0.02916534      -0.00749769
Au      54.00140584      50.00000000      44.01952154      -0.00916977      -0.00000000      -0.00487313
Au      52.23295038      47.76704962      47.76704962      -0.00608460       0.00608460       0.00608460
Au      52.00713026      50.00000000      50.00000000       0.04014732       0.00000000      -0.00000000
Au      54.02650892      47.98125573      50.00000000      -0.04275134      -0.02571980      -0.00000000
Au      54.02650892      50.00000000      47.98125573      -0.04275134       0.00000000      -0.02571980
Au      52.23295038      47.76704962      52.23295038      -0.00608460       0.00608460      -0.00608460
Au      52.01874427      50.00000000      54.02650892       0.02571980       0.00000000      -0.04275134
Au      54.39184874      47.61616154      54.39184874       0.00749769      -0.02916534       0.00749769
Au      54.02650892      50.00000000      52.01874427      -0.04275134      -0.00000000       0.02571980
Au      52.06738611      47.93261389      56.07217854       0.00372374      -0.00372374      -0.00681315
Au      54.00140584      50.00000000      55.98047846      -0.00916977       0.00000000       0.00487313
Au      52.06738611      52.06738611      43.92782146       0.00372374       0.00372374       0.00681315
Au      52.38383846      54.39184874      45.60815126       0.02916534       0.00749769      -0.00749769
Au      54.39184874      52.38383846      45.60815126       0.00749769       0.02916534      -0.00749769
Au      52.23295038      52.23295038      47.76704962      -0.00608460      -0.00608460       0.00608460
Au      52.01874427      54.02650892      50.00000000       0.02571980      -0.04275134      -0.00000000
Au      54.02650892      52.01874427      50.00000000      -0.04275134       0.02571980      -0.00000000
Au      54.39184874      54.39184874      47.61616154       0.00749769       0.00749769      -0.02916534
Au      52.23295038      52.23295038      52.23295038      -0.00608460      -0.00608460      -0.00608460
Au      52.38383846      54.39184874      54.39184874       0.02916534       0.00749769       0.00749769
Au      54.39184874      52.38383846      54.39184874       0.00749769       0.02916534       0.00749769
Au      54.39184874      54.39184874      52.38383846       0.00749769       0.00749769       0.02916534
Au      52.06738611      52.06738611      56.07217854       0.00372374       0.00372374      -0.00681315
Au      52.06738611      56.07217854      47.93261389       0.00372374      -0.00681315      -0.00372374
Au      54.00140584      55.98047846      50.00000000      -0.00916977       0.00487313       0.00000000
Au      52.06738611      56.07217854      52.06738611       0.00372374      -0.00681315       0.00372374
Au      55.98047846      45.99859416      50.00000000       0.00487313       0.00916977       0.00000000
Au      55.98047846      50.00000000      45.99859416       0.00487313      -0.00000000       0.00916977
Au      56.07217854      47.93261389      47.93261389      -0.00681315      -0.00372374      -0.00372374
Au      56.23552372      50.00000000      50.00000000      -0.02507805      -0.00000000       0.00000000
Au      56.07217854      47.93261389      52.06738611      -0.00681315      -0.00372374       0.00372374
Au      55.98047846      50.00000000      54.00140584       0.00487313      -0.00000000      -0.00916977
Au      56.07217854      52.06738611      47.93261389      -0.00681315       0.00372374      -0.00372374
Au      55.98047846      54.00140584      50.00000000       0.00487313      -0.00916977       0.00000000
Au      56.07217854      52.06738611      52.06738611      -0.00681315       0.00372374       0.00372374
