116
Lattice="100.0 0.0 0.0 0.0 100.0 0.0 0.0 0.0 100.0" Properties=species:S:1:pos:R:3:forces:R:3 energy=-629.584560249313 free_energy=-629.584560249313 pbc="T T T"
Co      44.88567222      46.58818066      50.00000000       0.00700357       0.01969210      -0.00000000
Co      46.58818066      44.88567222      50.00000000       0.01969210       0.00700357      -0.00000000
Co      46.52596571      46.52596571      48.23763031       0.00070192       0.00070192      -0.00041771
Co      46.52596571      46.52596571      51.76236969       0.00070192       0.00070192       0.00041771
Co      44.88567222      50.00000000      46.58818066       0.00700357       0.00000000       0.01969210
Co      46.52596571      48.23763031      46.52596571       0.00070192      -0.00041771       0.00070192
Co      46.58818066      50.00000000      44.88567222       0.01969210       0.00000000       0.00700357
Co      44.86434137      48.29240092      48.29240092       0.01427257      -0.00930590      -0.00930590
Co      44.82361380      50.00000000      50.00000000      -0.03134322       0.00000000      -0.00000000
Co      46.55251502      48.26657532      50.00000000      -0.01970953      -0.01519749      -0.00000000
Co      46.55251502      50.00000000      48.26657532      -0.01970953       0.00000000      -0.01519749
Co      44.86434137      48.29240092      51.70759908       0.01427257      -0.00930590       0.00930590
Co      44.88567222      50.00000000      53.41181934       0.00700357      -0.00000000      -0.01969210
Co      46.52596571      48.23763031      53.47403429       0.00070192      -0.00041771      -0.00070192
Co      46.55251502      50.00000000      51.73342468      -0.01970953      -0.00000000       0.01519749
Co      46.58818066      50.00000000      55.11432778       0.01969210      -0.00000000      -0.00700357
Co      46.52596571      51.76236969      46.52596571       0.00070192       0.00041771       0.00070192
Co      44.86434137      51.70759908      48.29240092       0.01427257       0.00930590      -0.00930590
Co      44.88567222      53.41181934      50.00000000       0.00700357      -0.01969210      -0.00000000
Co      46.55251502      51.73342468      50.00000000      -0.01970953       0.01519749       0.00000000
Co      46.52596571      53.47403429      48.23763031       0.00070192      -0.00070192      -0.00041771
Co      44.86434137      51.70759908      51.70759908       0.01427257       0.00930590       0.00930590
Co      46.52596571      51.76236969      53.47403429       0.00070192       0.00041771      -0.00070192
Co      46.52596571      53.47403429      51.76236969       0.00070192      -0.00070192       0.00041771
Co      46.58818066      55.11432778      50.00000000       0.01969210      -0.00700357      -0.00000000
Co      48.23763031      46.52596571      46.52596571      -0.00041771       0.00070192       0.00070192
Co      50.00000000      44.88567222      46.58818066       0.00000000       0.00700357       0.01969210
Co      50.00000000      46.58818066      44.88567222       0.00000000       0.01969210       0.00700357
Co      48.29240092      44.86434137      48.29240092      -0.00930590       0.01427257      -0.00930590
Co      48.26657532      46.55251502      50.00000000      -0.01519749      -0.01970953       0.00000000
Co      50.00000000      44.82361380      50.00000000       0.00000000      -0.03134322       0.00000000
Co      50.00000000      46.55251502      48.26657532      -0.00000000      -0.01970953      -0.01519749
Co      48.29240092      44.86434137      51.70759908      -0.00930590       0.01427257       0.00930590
Co      48.23763031      46.52596571      53.47403429      -0.00041771       0.00070192      -0.00070192
Co      50.00000000      44.88567222      53.41181934       0.00000000       0.00700357      -0.01969210
Co      50.00000000      46.55251502      51.73342468       0.00000000      -0.01970953       0.01519749
Co      50.00000000      46.58818066      55.11432778      -0.00000000       0.01969210      -0.00700357
Co      48.29240092      48.29240092      44.86434137      -0.00930590      -0.00930590       0.01427257
Co      48.26657532      50.00000000      46.55251502      -0.01519749       0.00000000      -0.01970953
Co      50.00000000      48.26657532      46.55251502      -0.00000000      -0.01519749      -0.01970953
Co      50.00000000      50.00000000      44.82361380      -0.00000000       0.00000000      -0.03134322
Co      48.24740440      48.24740440      48.24740440      -0.00604990      -0.00604990      -0.00604990
Co      48.28601688      50.00000000      50.00000000       0.01116379       0.00000000      -0.00000000
Co      50.00000000      48.28601688      50.00000000      -0.00000000       0.01116379       0.00000000
Co      50.00000000      50.00000000      48.28601688      -0.00000000       0.00000000       0.01116379
Co      48.24740440      48.24740440      51.75259560      -0.00604990      -0.00604990       0.00604990
Co      48.26657532      50.00000000      53.44748498      -0.01519749       0.00000000       0.01970953
Co      50.00000000      48.26657532      53.44748498       0.00000000      -0.01519749       0.01970953
Co      50.00000000      50.00000000      51.71398312      -0.00000000       0.00000000      -0.01116379
Co      48.29240092      48.29240092      55.13565863      -0.00930590      -0.00930590      -0.01427257
Co      50.00000000      50.00000000      55.17638620      -0.00000000      -0.00000000       0.03134322
Co      48.29240092      51.70759908      44.86434137      -0.00930590       0.00930590       0.01427257
Co      48.23763031      53.47403429      46.52596571      -0.00041771      -0.00070192       0.00070192
Co      50.00000000      51.73342468      46.55251502       0.00000000       0.01519749      -0.01970953
Co      50.00000000      53.41181934      44.88567222       0.00000000      -0.01969210       0.00700357
Co      48.24740440      51.75259560      48.24740440      -0.00604990       0.00604990      -0.00604990
Co      48.26657532      53.44748498      50.00000000      -0.01519749       0.01970953       0.00000000
Co      50.00000000      51.71398312      50.00000000      -0.00000000      -0.01116379       0.00000000
Co      50.00000000      53.44748498      48.26657532       0.00000000       0.01970953      -0.01519749
Co      48.24740440      51.75259560      51.75259560      -0.00604990       0.00604990       0.00604990
Co      48.23763031      53.47403429      53.47403429      -0.00041771      -0.00070192      -0.00070192
Co      50.00000000      51.73342468      53.44748498       0.00000000       0.01519749       0.01970953
Co      50.00000000      53.44748498      51.73342468      -0.00000000       0.01970953       0.01519749
Co      48.29240092      51.70759908      55.13565863      -0.00930590       0.00930590      -0.01427257
Co      50.00000000      53.41181934      55.11432778       0.00000000      -0.01969210      -0.00700357
Co      50.00000000      55.11432778      46.58818066      -0.00000000      -0.00700357       0.01969210
Co      48.29240092      55.13565863      48.29240092      -0.00930590      -0.01427257      -0.00930590
Co      50.00000000      55.17638620      50.00000000      -0.00000000       0.03134322      -0.00000000
Co      48.29240092      55.13565863      51.70759908      -0.00930590      -0.01427257       0.00930590
Co      50.00000000      55.11432778      53.41181934      -0.00000000      -0.00700357      -0.01969210
Co      51.76236969      46.52596571      46.52596571       0.00041771       0.00070192       0.00070192
Co      51.70759908      44.86434137      48.29240092       0.00930590       0.01427257      -0.00930590
Co      51.73342468      46.55251502      50.00000000       0.01519749      -0.01970953       0.00000000
Co      53.41181934      44.88567222      50.00000000      -0.01969210       0.00700357       0.00000000
Co      53.47403429      46.52596571      48.23763031      -0.00070192       0.00070192      -0.00041771
Co      51.70759908      44.86434137      51.70759908       0.00930590       0.01427257       0.00930590
Co      51.76236969      46.52596571      53.47403429       0.00041771       0.00070192      -0.00070192
Co      53.47403429      46.52596571      51.76236969      -0.00070192       0.00070192       0.00041771
Co      51.70759908      48.29240092      44.86434137       0.00930590      -0.00930590       0.01427257
Co      51.73342468      50.00000000      46.55251502       0.01519749      -0.00000000      -0.01970953
Co      53.47403429      48.23763031      46.52596571      -0.00070192      -0.00041771       0.00070192
Co      53.41181934      50.00000000      44.88567222      -0.01969210       0.00000000       0.00700357
Co      51.75259560      48.24740440      48.24740440       0.00604990      -0.00604990      -0.00604990
Co      51.71398312      50.00000000      50.00000000      -0.01116379       0.00000000       0.00000000
Co      53.44748498      48.26657532      50.00000000       0.01970953      -0.01519749       0.00000000
Co      53.44748498      50.00000000      48.26657532       0.01970953       0.00000000      -0.01519749
Co      51.75259560      48.24740440      51.75259560       0.00604990      -0.00604990       0.00604990
Co      51.73342468      50.00000000      53.44748498       0.01519749       0.00000000       0.01970953
Co      53.47403429      48.23763031      53.47403429      -0.00070192      -0.00041771      -0.00070192
Co      53.44748498      50.00000000      51.73342468       0.01970953      -0.00000000       0.01519749
Co      51.70759908      48.29240092      55.13565863       0.00930590      -0.00930590      -0.01427257
Co      53.41181934      50.00000000      55.11432778      -0.01969210       0.00000000      -0.00700357
Co      51.70759908      51.70759908      44.86434137       0.00930590       0.00930590       0.01427257
Co      51.76236969      53.47403429      46.52596571       0.00041771      -0.00070192       0.00070192
Co      53.47403429      51.76236969      46.52596571      -0.00070192       0.00041771       0.00070192
Co      51.75259560      51.75259560      48.24740440       0.00604990       0.00604990      -0.00604990
Co      51.73342468      53.44748498      50.00000000       0.01519749       0.01970953      -0.00000000
Co      53.44748498      51.73342468      50.00000000       0.01970953       0.01519749       0.00000000
Co      53.47403429      53.47403429      48.23763031      -0.00070192      -0.00070192      -0.00041771
Co      51.75259560      51.75259560      51.75259560       0.00604990       0.00604990       0.00604990
Co      51.76236969      53.47403429      53.47403429       0.00041771      -0.00070192      -0.00070192
Co      53.47403429      51.76236969      53.47403429      -0.00070192       0.00041771      -0.00070192
Co      53.47403429      53.47403429      51.76236969      -0.00070192      -0.00070192       0.00041771
Co      51.70759908      51.70759908      55.13565863       0.00930590       0.00930590      -0.01427257
Co      51.70759908      55.13565863      48.29240092       0.00930590      -0.01427257      -0.00930590
Co      53.41181934      55.11432778      50.00000000      -0.01969210      -0.00700357      -0.00000000
Co      51.70759908      55.13565863      51.70759908       0.00930590      -0.01427257       0.00930590
Co      55.11432778      46.58818066      50.00000000      -0.00700357       0.01969210       0.00000000
Co      55.11432778      50.00000000      46.58818066      -0.00700357       0.00000000       0.01969210
Co      55.13565863      48.29240092      48.29240092      -0.01427257      -0.00930590      -0.00930590
Co      55.17638620      50.00000000      50.00000000       0.03134322       0.00000000       0.00000000
Co      55.13565863      48.29240092      51.70759908      -0.01427257      -0.00930590       0.00930590
Co      55.11432778      50.00000000      53.41181934      -0.00700357       0.00000000      -0.01969210
Co      55.13565863      51.70759908      48.29240092      -0.01427257       0.00930590      -0.00930590
Co      55.11432778      53.41181934      50.00000000      -0.00700357      -0.01969210      -0.00000000
Co      55.13565863      51.70759908      51.70759908      -0.01427257       0.00930590       0.00930590
