116
Lattice="100.0 0.0 0.0 0.0 100.0 0.0 0.0 0.0 100.0" Properties=species:S:1:pos:R:3:forces:R:3 energy=-824.9404677193718 free_energy=-824.9404677193718 pbc="T T T"
Ir      44.46904088      46.27203125      50.00000000       0.01005384      -0.02322920       0.00000000
Ir      46.27203125      44.46904088      50.00000000      -0.02322920       0.01005384       0.00000000
Ir      45.84916065      45.84916065      47.73093596      -0.00299964      -0.00299964       0.00549558
Ir      45.84916065      45.84916065      52.26906404      -0.00299964      -0.00299964      -0.00549558
Ir      44.46904088      50.00000000      46.27203125       0.01005384       0.00000000      -0.02322920
Ir      45.84916065      47.73093596      45.84916065      -0.00299964       0.00549558      -0.00299964
Ir      46.27203125      50.00000000      44.46904088      -0.02322920       0.00000000       0.01005384
Ir      44.44137505      48.03106749      48.03106749       0.01319140      -0.00125028      -0.00125028
Ir      44.33120482      50.00000000      50.00000000      -0.03260193      -0.00000000      -0.00000000
Ir      46.22973794      48.12589379      50.00000000       0.02255370       0.00161998       0.00000000
Ir      46.22973794      50.00000000      48.12589379       0.02255370       0.00000000       0.00161998
Ir      44.44137505      48.03106749      51.96893251       0.01319140      -0.00125028       0.00125028
Ir      44.46904088      50.00000000      53.72796875       0.01005384       0.00000000       0.02322920
Ir      45.84916065      47.73093596      54.15083935      -0.00299964       0.00549558       0.00299964
Ir      46.22973794      50.00000000      51.87410621       0.02255370      -0.00000000      -0.00161998
Ir      46.27203125      50.00000000      55.53095912      -0.02322920       0.00000000      -0.01005384
Ir      45.84916065      52.26906404      45.84916065      -0.00299964      -0.00549558      -0.00299964
Ir      44.44137505      51.96893251      48.03106749       0.01319140       0.00125028      -0.00125028
Ir      44.46904088      53.72796875      50.00000000       0.01005384       0.02322920      -0.00000000
Ir      46.22973794      51.87410621      50.00000000       0.02255370      -0.00161998      -0.00000000
Ir      45.84916065      54.15083935      47.73093596      -0.00299964       0.00299964       0.00549558
Ir      44.44137505      51.96893251      51.96893251       0.01319140       0.00125028       0.00125028
Ir      45.84916065      52.26906404      54.15083935      -0.00299964      -0.00549558       0.00299964
Ir      45.84916065      54.15083935      52.26906404      -0.00299964       0.00299964      -0.00549558
Ir      46.27203125      55.53095912      50.00000000      -0.02322920      -0.01005384      -0.00000000
Ir      47.73093596      45.84916065      45.84916065       0.00549558      -0.00299964      -0.00299964
Ir      50.00000000      44.46904088      46.27203125       0.00000000       0.01005384      -0.02322920
Ir      50.00000000      46.27203125      44.46904088       0.00000000      -0.02322920       0.01005384
Ir      48.03106749      44.44137505      48.03106749      -0.00125028       0.01319140      -0.00125028
Ir      48.12589379      46.22973794      50.00000000       0.00161998       0.02255370       0.00000000
Ir      50.00000000      44.33120482      50.00000000       0.00000000      -0.03260193       0.00000000
Ir      50.00000000      46.22973794      48.12589379       0.00000000       0.02255370       0.00161998
Ir      48.03106749      44.44137505      51.96893251      -0.00125028       0.01319140       0.00125028
Ir      47.73093596      45.84916065      54.15083935       0.00549558      -0.00299964       0.00299964
Ir      50.00000000      44.46904088      53.72796875      -0.00000000       0.01005384       0.02322920
Ir      50.00000000      46.22973794      51.87410621      -0.00000000       0.02255370      -0.00161998
Ir      50.00000000      46.27203125      55.53095912       0.00000000      -0.02322920      -0.01005384
Ir      48.03106749      48.03106749      44.44137505      -0.00125028      -0.00125028       0.01319140
Ir      48.12589379      50.00000000      46.22973794       0.00161998      -0.00000000       0.02255370
Ir      50.00000000      48.12589379      46.22973794      -0.00000000       0.00161998       0.02255370
Ir      50.00000000      50.00000000      44.33120482       0.00000000       0.00000000      -0.03260193
Ir      48.09810552      48.09810552      48.09810552      -0.00176680      -0.00176680      -0.00176680
Ir      48.08472922      50.00000000      50.00000000      -0.02212274      -0.00000000       0.00000000
Ir      50.00000000      48.08472922      50.00000000       0.00000000      -0.02212274       0.00000000
Ir      50.00000000      50.00000000      48.08472922      -0.00000000      -0.00000000      -0.02212274
Ir      48.09810552      48.09810552      51.90189448      -0.00176680      -0.00176680       0.00176680
Ir      48.12589379      50.00000000      53.77026206       0.00161998      -0.00000000      -0.02255370
Ir      50.00000000      48.12589379      53.77026206      -0.00000000       0.00161998      -0.02255370
Ir      50.00000000      50.00000000      51.91527078      -0.00000000      -0.00000000       0.02212274
Ir      48.03106749      48.03106749      55.55862495      -0.00125028      -0.00125028      -0.01319140
Ir      50.00000000      50.00000000      55.66879518       0.00000000       0.00000000       0.03260193
Ir      48.03106749      51.96893251      44.44137505      -0.00125028       0.00125028       0.01319140
Ir      47.73093596      54.15083935      45.84916065       0.00549558       0.00299964      -0.00299964
Ir      50.00000000      51.87410621      46.22973794       0.00000000      -0.00161998       0.02255370
Ir      50.00000000      53.72796875      44.46904088      -0.00000000       0.02322920       0.01005384
Ir      48.09810552      51.90189448      48.09810552      -0.00176680       0.00176680      -0.00176680
Ir      48.12589379      53.77026206      50.00000000       0.00161998      -0.02255370       0.00000000
Ir      50.00000000      51.91527078      50.00000000      -0.00000000       0.02212274      -0.00000000
Ir      50.00000000      53.77026206      48.12589379      -0.00000000      -0.02255370       0.00161998
Ir      48.09810552      51.90189448      51.90189448      -0.00176680       0.00176680       0.00176680
Ir      47.73093596      54.15083935      54.15083935       0.00549558       0.00299964       0.00299964
Ir      50.00000000      51.87410621      53.77026206      -0.00000000      -0.00161998      -0.02255370
Ir      50.00000000      53.77026206      51.87410621      -0.00000000      -0.02255370      -0.00161998
Ir      48.03106749      51.96893251      55.55862495      -0.00125028       0.00125028      -0.01319140
Ir      50.00000000      53.72796875      55.53095912       0.00000000       0.02322920      -0.01005384
Ir      50.00000000      55.53095912      46.27203125      -0.00000000      -0.01005384      -0.02322920
Ir      48.03106749      55.55862495      48.03106749      -0.00125028      -0.01319140      -0.00125028
Ir      50.00000000      55.66879518      50.00000000      -0.00000000       0.03260193       0.00000000
Ir      48.03106749      55.55862495      51.96893251      -0.00125028      -0.01319140       0.00125028
Ir      50.00000000      55.53095912      53.72796875      -0.00000000      -0.01005384       0.02322920
Ir      52.26906404      45.84916065      45.84916065      -0.00549558      -0.00299964      -0.00299964
Ir      51.96893251      44.44137505      48.03106749       0.00125028       0.01319140      -0.00125028
Ir      51.87410621      46.22973794      50.00000000      -0.00161998       0.02255370       0.00000000
Ir      53.72796875      44.46904088      50.00000000       0.02322920       0.01005384       0.00000000
Ir      54.15083935      45.84916065      47.73093596       0.00299964      -0.00299964       0.00549558
Ir      51.96893251      44.44137505      51.96893251       0.00125028       0.01319140       0.00125028
Ir      52.26906404      45.84916065      54.15083935      -0.00549558      -0.00299964       0.00299964
Ir      54.15083935      45.84916065      52.26906404       0.00299964      -0.00299964      -0.00549558
Ir      51.96893251      48.03106749      44.44137505       0.00125028      -0.00125028       0.01319140
Ir      51.87410621      50.00000000      46.22973794      -0.00161998      -0.00000000       0.02255370
Ir      54.15083935      47.73093596      45.84916065       0.00299964       0.00549558      -0.00299964
Ir      53.72796875      50.00000000      44.46904088       0.02322920       0.00000000       0.01005384
Ir      51.90189448      48.09810552      48.09810552       0.00176680      -0.00176680      -0.00176680
Ir      51.91527078      50.00000000      50.00000000       0.02212274      -0.00000000      -0.00000000
Ir      53.77026206      48.12589379      50.00000000      -0.02255370       0.00161998      -0.00000000
Ir      53.77026206      50.00000000      48.12589379      -0.02255370      -0.00000000       0.00161998
Ir      51.90189448      48.09810552      51.90189448       0.00176680      -0.00176680       0.00176680
Ir      51.87410621      50.00000000      53.77026206      -0.00161998      -0.00000000      -0.02255370
Ir      54.15083935      47.73093596      54.15083935       0.00299964       0.00549558       0.00299964
Ir      53.77026206      50.00000000      51.87410621      -0.02255370       0.00000000      -0.00161998
Ir      51.96893251      48.03106749      55.55862495       0.00125028      -0.00125028      -0.01319140
Ir      53.72796875      50.00000000      55.53095912       0.02322920      -0.00000000      -0.01005384
Ir      51.96893251      51.96893251      44.44137505       0.00125028       0.00125028       0.01319140
Ir      52.26906404      54.15083935      45.84916065      -0.00549558       0.00299964      -0.00299964
Ir      54.15083935      52.26906404      45.84916065       0.00299964      -0.00549558      -0.00299964
Ir      51.90189448      51.90189448      48.09810552       0.00176680       0.00176680      -0.00176680
Ir      51.87410621      53.77026206      50.00000000      -0.00161998      -0.02255370      -0.00000000
Ir      53.77026206      51.87410621      50.00000000      -0.02255370      -0.00161998      -0.00000000
Ir      54.15083935      54.15083935      47.73093596       0.00299964       0.00299964       0.00549558
Ir      51.90189448      51.90189448      51.90189448       0.00176680       0.00176680       0.00176680
Ir      52.26906404      54.15083935      54.15083935      -0.00549558       0.00299964       0.00299964
Ir      54.15083935      52.26906404      54.15083935       0.00299964      -0.00549558       0.00299964
Ir      54.15083935      54.15083935      52.26906404       0.00299964       0.00299964      -0.00549558
Ir      51.96893251      51.96893251      55.55862495       0.00125028       0.00125028      -0.01319140
Ir      51.96893251      55.55862495      48.03106749       0.00125028      -0.01319140      -0.00125028
Ir      53.72796875      55.53095912      50.00000000       0.02322920      -0.01005384      -0.00000000
Ir      51.96893251      55.55862495      51.96893251       0.00125028      -0.01319140       0.00125028
Ir      55.53095912      46.27203125      50.00000000      -0.01005384      -0.02322920      -0.00000000
Ir      55.53095912      50.00000000      46.27203125      -0.01005384       0.00000000      -0.02322920
Ir      55.55862495      48.03106749      48.03106749      -0.01319140      -0.00125028      -0.00125028
Ir      55.66879518      50.00000000      50.00000000       0.03260193       0.00000000      -0.00000000
Ir      55.55862495      48.03106749      51.96893251      -0.01319140      -0.00125028       0.00125028
Ir      55.53095912      50.00000000      53.72796875      -0.01005384      -0.00000000       0.02322920
Ir      55.55862495      51.96893251      48.03106749      -0.01319140       0.00125028      -0.00125028
Ir      55.53095912      53.72796875      50.00000000      -0.01005384       0.02322920      -0.00000000
Ir      55.55862495      51.96893251      51.96893251      -0.01319140       0.00125028       0.00125028
