116
Lattice="100.0 0.0 0.0 0.0 100.0 0.0 0.0 0.0 100.0" Properties=species:S:1:pos:R:3:forces:R:3 energy=-1077.333536349924 free_energy=-1077.333536349924 pbc="T T T"
Mo      44.44134723      46.18185697      49.99968519       0.07316848       0.11354088      -0.00279088
Mo      46.18227149      44.44143416      49.99981513       0.11155689       0.06861076      -0.00133260
Mo      45.85123693      45.85109545      47.83133764      -0.00813125      -0.00945401      -0.00188213
Mo      45.85150831      45.85138798      52.16852615      -0.01013907      -0.01104796       0.00523588
Mo      44.44148435      49.99999786      46.18220424       0.07102428       0.00056086       0.11107036
Mo      45.85112690      47.83135098      45.85124468      -0.00967278      -0.00235969      -0.00961320
Mo      46.18213368      50.00000155      44.44130055       0.11082444      -0.00115896       0.07297247
Mo      44.43721057      48.10838133      48.10841579       0.24638624       0.19195176       0.19102475
Mo      44.26511408      49.99997289      50.00020653       0.01653667       0.00063013       0.00561428
Mo      46.09711589      47.88494145      50.00042220       0.24579668       0.21836161       0.01481934
Mo      46.09661648      49.99999770      47.88471804       0.24750222       0.00103222       0.20874057
Mo      44.43402195      48.10473439      51.89305797       0.16504173       0.10485456      -0.11876941
Mo      44.43557784      50.00004615      53.82020562       0.03556130      -0.00101166      -0.05671848
Mo      45.85231713      47.83003206      54.14780310      -0.01567875       0.00427946       0.00489178
Mo      46.07857931      49.99965673      52.12794262       0.09816051       0.00123001      -0.11822158
Mo      46.18020306      50.00019794      55.56424691       0.04874966       0.00413757      -0.03326617
Mo      45.85116575      52.16862479      45.85127548      -0.01119073       0.00261589      -0.00757918
Mo      44.43681541      51.89187100      48.10814606       0.24755487      -0.19082677       0.18985760
Mo      44.44135330      53.81814843      49.99969519       0.07220215      -0.11400928      -0.00313193
Mo      46.09704602      52.11514688      50.00034520       0.24361624      -0.21901797       0.01398862
Mo      45.85128475      54.14889309      47.83135841      -0.00893209       0.00897635      -0.00314224
Mo      44.43398511      51.89528994      51.89310439       0.16521362      -0.10488743      -0.11972470
Mo      45.85233443      52.16989914      54.14768120      -0.01169926      -0.00514399       0.01141711
Mo      45.85147765      54.14859171      52.16857833      -0.01091115       0.01175689       0.00405512
Mo      46.18232143      55.55850439      49.99980140       0.11049454      -0.06618935      -0.00103259
Mo      47.83083827      45.85130416      45.85091080      -0.00109100      -0.00594685      -0.00771551
Mo      50.00054764      44.44108028      46.18252786      -0.00192018       0.03882029       0.09217692
Mo      49.99995628      46.18247576      44.44054976      -0.00187773       0.12326727       0.08522869
Mo      48.10875564      44.43749467      48.10877739       0.19096537       0.24789238       0.19599441
Mo      47.88484099      46.09664571      50.00002106       0.21132488       0.24956642       0.00143290
Mo      50.00016471      44.26557407      49.99983013       0.02321823       0.02461508      -0.02230765
Mo      50.00551873      46.09055116      47.88186922       0.08280655       0.15374263       0.17060978
Mo      48.10814846      44.43669366      51.89182193       0.19772090       0.24276996      -0.19666658
Mo      47.83140629      45.85141387      54.14863010      -0.00254705      -0.01432081       0.00332776
Mo      50.00023108      44.44156992      53.81763086       0.00088788       0.06666466      -0.10985724
Mo      49.99997098      46.09635501      52.11543292      -0.00107088       0.24647559      -0.21123327
Mo      50.00023916      46.18197576      55.55867720       0.00680649       0.10861471      -0.07451883
Mo      48.10828693      48.10831833      44.43716050       0.19236685       0.18933384       0.24740735
Mo      47.88466242      50.00000051      46.09686694       0.20468934      -0.00168501       0.25291074
Mo      49.99842526      47.88538064      46.09705885       0.01177379       0.18043376       0.22942845
Mo      49.99996468      49.99996941      44.26458801       0.00411259      -0.00131099       0.00406072
Mo      47.72797876      47.72808950      47.72789140       0.02654179       0.01132859       0.02269759
Mo      48.16300130      50.00002108      50.00079429      -0.01901923      -0.00183229       0.01621441
Mo      49.99970509      48.16287320      50.00030514      -0.00803939      -0.00405125       0.00592487
Mo      49.99963868      50.00001393      48.16284189      -0.00412955      -0.00092328      -0.01284062
Mo      47.72734823      47.72888521      52.27270308       0.00403341       0.04237230      -0.00578976
Mo      47.87213506      49.99986932      53.92101094       0.11844010       0.00992065      -0.11079239
Mo      49.99938588      47.88471408      53.90331758      -0.00655035       0.21574701      -0.25255244
Mo      49.99924842      50.00002731      51.83693731      -0.01808457      -0.00283412       0.02059707
Mo      48.10954423      48.10891478      55.56168357       0.17471864       0.18245077      -0.21786844
Mo      49.99960729      49.99983393      55.73481497      -0.00049289       0.00524421      -0.01220162
Mo      48.10917104      51.89035614      44.43833628       0.19015327      -0.18510786       0.23738917
Mo      47.83085236      54.14867908      45.85093573      -0.00028561       0.00604192      -0.00628013
Mo      49.99844219      52.11462669      46.09710026       0.01307095      -0.18052902       0.23117331
Mo      49.99995398      53.81752620      44.44057161      -0.00081911      -0.12249242       0.08697553
Mo      47.72797448      52.27191706      47.72790024       0.02622349      -0.01135375       0.02231008
Mo      47.88472740      53.90354886      49.99987326       0.21214282      -0.24874735       0.00079688
Mo      49.99964030      51.83713146      50.00030694      -0.01086942       0.00492686       0.00617589
Mo      50.00553973      53.90949754      47.88190448       0.08765354      -0.15137290       0.17395026
Mo      47.72736253      52.27112999      52.27271608       0.00365000      -0.04333519      -0.00474324
Mo      47.83145310      54.14859493      54.14848832      -0.00449713       0.01294120       0.01091502
Mo      49.99960883      52.11506387      53.90284542      -0.01560500      -0.21818611      -0.24543000
Mo      49.99998755      53.90333813      52.11516124      -0.00800205      -0.24763996      -0.20489729
Mo      48.10691152      51.89530940      55.56603508       0.12009228      -0.10702123      -0.16788066
Mo      50.00030844      53.81814139      55.55865121       0.00328814      -0.11243968      -0.07275704
Mo      50.00054158      55.55892810      46.18253296       0.00019550      -0.03824813       0.09280974
Mo      48.10876722      55.56249511      48.10877597       0.19110377      -0.24699428       0.19539238
Mo      50.00014217      55.73442445      49.99981018       0.02398181      -0.02383451      -0.02470672
Mo      48.10815889      55.56334592      51.89186656       0.19908241      -0.24270471      -0.19788221
Mo      50.00019089      55.55852600      53.81770583       0.00226111      -0.06835573      -0.11317961
Mo      52.16880475      45.85049073      45.85221421       0.01386837      -0.02179587      -0.01221959
Mo      51.90780829      44.41979556      48.09218326      -0.02088487       0.09504319       0.02139525
Mo      52.11699704      46.09217679      49.99289199      -0.17196613       0.15527627      -0.08032484
Mo      53.81749022      44.44107037      49.99947968      -0.09999542       0.05166470       0.00255467
Mo      54.14779010      45.85049643      47.83121237       0.01465733      -0.02347892      -0.01472380
Mo      51.89122684      44.43752268      51.89123515      -0.19600435       0.25015183      -0.19201795
Mo      52.16868249      45.85109225      54.14873121      -0.00068259      -0.00813875       0.00842745
Mo      54.14902925      45.85128857      52.16915728       0.00742790      -0.00664639      -0.00193702
Mo      51.89174484      48.10831869      44.43697988      -0.19205834       0.18988749       0.25287213
Mo      52.11561596      50.00001157      46.09631564      -0.20976457      -0.00019601       0.24043107
Mo      54.14905408      47.83134066      45.85092445       0.01183290       0.00152201      -0.01190350
Mo      53.81778060      50.00000146      44.44145700      -0.10962378      -0.00019055       0.06584186
Mo      52.27187338      47.72749669      47.72813793      -0.02134761       0.02055796       0.01865193
Mo      51.83723936      50.00007151      50.00039890       0.01261732       0.00083431       0.00287389
Mo      53.90280174      47.88542838      50.00141741      -0.23041307       0.18346454      -0.01172076
Mo      53.90361711      49.99991338      47.88436946      -0.23822333       0.00059486       0.20960503
Mo      52.27209143      47.72810894      52.27204899      -0.02269999       0.00967519      -0.02713237
Mo      52.11527138      50.00004483      53.90341322      -0.20892646      -0.00259615      -0.24671131
Mo      54.14867385      47.83139560      54.14883895       0.01147638      -0.00384706       0.01013393
Mo      53.90307590      50.00013857      52.11526278      -0.24497524      -0.00039549      -0.20585793
Mo      51.89185302      48.10819795      55.56314939      -0.18894284       0.18892145      -0.24774140
Mo      53.81779492      50.00000976      55.55854155      -0.10984721       0.00029250      -0.06914196
Mo      51.89169597      51.89163266      44.43701542      -0.19231277      -0.18973138       0.25187473
Mo      52.16882151      54.14953468      45.85221225       0.01155825       0.02287805      -0.01099733
Mo      54.14899912      52.16866491      45.85091670       0.01319806      -0.00156804      -0.01087907
Mo      52.27188467      52.27253165      47.72806906      -0.02084750      -0.01635883       0.02311008
Mo      52.11438958      53.90438308      49.99885216      -0.20983291      -0.21722664      -0.03278435
Mo      53.90275400      52.11441753      50.00123710      -0.23291464      -0.18700488      -0.00992936
Mo      54.14772021      54.14966542      47.83117082       0.00825122       0.02559126      -0.00527160
Mo      52.27222633      52.27192279      52.27196889      -0.02468494      -0.01898962      -0.02192335
Mo      52.16865514      54.14890022      54.14877989       0.00329354       0.01157456       0.00690382
Mo      54.14868457      52.16860152      54.14889739       0.01227424       0.00464626       0.01001847
Mo      54.14966041      54.14900453      52.16907678       0.01286835       0.00922647       0.00190178
Mo      51.89151103      51.89154108      55.56281959      -0.18822251      -0.18944882      -0.24785656
Mo      51.90789757      55.58016668      48.09217396      -0.02338478      -0.10539495       0.02529017
Mo      53.81745804      55.55874911      49.99937502      -0.11813870      -0.07751732       0.00013689
Mo      51.89118124      55.56256383      51.89125249      -0.19450687      -0.24845608      -0.19168099
Mo      55.55947237      46.18239688      50.00002659      -0.08546921       0.12215379       0.00203251
Mo      55.55847086      49.99995810      46.18218811      -0.06589474       0.00098548       0.11106386
Mo      55.56294023      48.10832168      48.10828327      -0.25192680       0.19159006       0.19355725
Mo      55.73547269      49.99993365      50.00002367      -0.00628052       0.00068652      -0.00213020
Mo      55.56342569      48.10788830      51.89207857      -0.24159833       0.18157561      -0.18717890
Mo      55.55860391      49.99998842      53.81789563      -0.07107492       0.00043403      -0.11400516
Mo      55.56362283      51.89201400      48.10789537      -0.25091576      -0.18900028       0.18964561
Mo      55.55975069      53.81806790      50.00006208      -0.08737351      -0.12051059       0.00422312
Mo      55.56345110      51.89205944      51.89207910      -0.24302892      -0.18007032      -0.18675763
