116
Lattice="100.0 0.0 0.0 0.0 100.0 0.0 0.0 0.0 100.0" Properties=species:S:1:pos:R:3:forces:R:3 energy=-492.40873612196845 free_energy=-492.40873612196845 pbc="T T T"
Ni      44.84594986      46.56498712      50.00000000       0.00793013       0.00319005       0.00000000
Ni      46.56498712      44.84594986      50.00000000       0.00319005       0.00793013       0.00000000
Ni      46.48798596      46.48798596      48.20063314      -0.02513230      -0.02513230      -0.02321538
Ni      46.48798596      46.48798596      51.79936686      -0.02513232      -0.02513232       0.02321539
Ni      44.84594986      50.00000000      46.56498712       0.00793013       0.00000000       0.00319005
Ni      46.48798596      48.20063314      46.48798596      -0.02513229      -0.02321538      -0.02513229
Ni      46.56498712      50.00000000      44.84594986       0.00319005       0.00000000       0.00793013
Ni      44.81576190      48.26936797      48.26936797      -0.00233464      -0.00147479      -0.00147479
Ni      44.73893560      50.00000000      50.00000000      -0.01210589      -0.00000000      -0.00000000
Ni      46.51726041      48.25436193      50.00000000       0.00585511      -0.00554996      -0.00000000
Ni      46.51726041      50.00000000      48.25436193       0.00585511      -0.00000000      -0.00554996
Ni      44.81576190      48.26936797      51.73063203      -0.00233464      -0.00147479       0.00147479
Ni      44.84594986      50.00000000      53.43501288       0.00793013      -0.00000000      -0.00319005
Ni      46.48798596      48.20063314      53.51201404      -0.02513232      -0.02321539       0.02513232
Ni      46.51726041      50.00000000      51.74563807       0.00585511       0.00000000       0.00554996
Ni      46.56498712      50.00000000      55.15405014       0.00319005      -0.00000000      -0.00793013
Ni      46.48798596      51.79936686      46.48798596      -0.02513232       0.02321539      -0.02513232
Ni      44.81576190      51.73063203      48.26936797      -0.00233464       0.00147479      -0.00147479
Ni      44.84594986      53.43501288      50.00000000       0.00793013      -0.00319005      -0.00000000
Ni      46.51726041      51.74563807      50.00000000       0.00585511       0.00554996       0.00000000
Ni      46.48798596      53.51201404      48.20063314      -0.02513231       0.02513231      -0.02321539
Ni      44.81576190      51.73063203      51.73063203      -0.00233464       0.00147479       0.00147479
Ni      46.48798596      51.79936686      53.51201404      -0.02513230       0.02321539       0.02513231
Ni      46.48798596      53.51201404      51.79936686      -0.02513231       0.02513231       0.02321539
Ni      46.56498712      55.15405014      50.00000000       0.00319005      -0.00793013      -0.00000000
Ni      48.20063314      46.48798596      46.48798596      -0.02321539      -0.02513231      -0.02513231
Ni      50.00000000      44.84594986      46.56498712       0.00000000       0.00793013       0.00319005
Ni      50.00000000      46.56498712      44.84594986       0.00000000       0.00319005       0.00793014
Ni      48.26936797      44.81576190      48.26936797      -0.00147479      -0.00233464      -0.00147479
Ni      48.25436193      46.51726041      50.00000000      -0.00554996       0.00585511      -0.00000000
Ni      50.00000000      44.73893560      50.00000000      -0.00000000      -0.01210589      -0.00000000
Ni      50.00000000      46.51726041      48.25436193      -0.00000000       0.00585511      -0.00554996
Ni      48.26936797      44.81576190      51.73063203      -0.00147479      -0.00233464       0.00147479
Ni      48.20063314      46.48798596      53.51201404      -0.02321539      -0.02513231       0.02513231
Ni      50.00000000      44.84594986      53.43501288      -0.00000000       0.00793013      -0.00319005
Ni      50.00000000      46.51726041      51.74563807       0.00000000       0.00585511       0.00554996
Ni      50.00000000      46.56498712      55.15405014      -0.00000000       0.00319005      -0.00793013
Ni      48.26936797      48.26936797      44.81576190      -0.00147479      -0.00147479      -0.00233464
Ni      48.25436193      50.00000000      46.51726041      -0.00554996      -0.00000000       0.00585511
Ni      50.00000000      48.25436193      46.51726041      -0.00000000      -0.00554996       0.00585511
Ni      50.00000000      50.00000000      44.73893560      -0.00000000      -0.00000000      -0.01210589
Ni      48.23810415      48.23810415      48.23810415       0.00293101       0.00293101       0.00293101
Ni      48.26407522      50.00000000      50.00000000       0.00778470       0.00000000      -0.00000000
Ni      50.00000000      48.26407522      50.00000000       0.00000000       0.00778470       0.00000000
Ni      50.00000000      50.00000000      48.26407522       0.00000000       0.00000000       0.00778470
Ni      48.23810415      48.23810415      51.76189585       0.00293101       0.00293101      -0.00293101
Ni      48.25436193      50.00000000      53.48273959      -0.00554996       0.00000000      -0.00585511
Ni      50.00000000      48.25436193      53.48273959       0.00000000      -0.00554996      -0.00585511
Ni      50.00000000      50.00000000      51.73592478      -0.00000000       0.00000000      -0.00778470
Ni      48.26936797      48.26936797      55.18423810      -0.00147479      -0.00147479       0.00233464
Ni      50.00000000      50.00000000      55.26106440      -0.00000000       0.00000000       0.01210589
Ni      48.26936797      51.73063203      44.81576190      -0.00147479       0.00147479      -0.00233464
Ni      48.20063314      53.51201404      46.48798596      -0.02321539       0.02513232      -0.02513232
Ni      50.00000000      51.74563807      46.51726041       0.00000000       0.00554996       0.00585511
Ni      50.00000000      53.43501288      44.84594986      -0.00000000      -0.00319005       0.00793013
Ni      48.23810415      51.76189585      48.23810415       0.00293101      -0.00293101       0.00293101
Ni      48.25436193      53.48273959      50.00000000      -0.00554996      -0.00585511       0.00000000
Ni      50.00000000      51.73592478      50.00000000      -0.00000000      -0.00778470       0.00000000
Ni      50.00000000      53.48273959      48.25436193       0.00000000      -0.00585511      -0.00554996
Ni      48.23810415      51.76189585      51.76189585       0.00293101      -0.00293101      -0.00293101
Ni      48.20063314      53.51201404      53.51201404      -0.02321538       0.02513229       0.02513229
Ni      50.00000000      51.74563807      53.48273959      -0.00000000       0.00554996      -0.00585511
Ni      50.00000000      53.48273959      51.74563807      -0.00000000      -0.00585511       0.00554996
Ni      48.26936797      51.73063203      55.18423810      -0.00147479       0.00147479       0.00233464
Ni      50.00000000      53.43501288      55.15405014       0.00000000      -0.00319005      -0.00793013
Ni      50.00000000      55.15405014      46.56498712      -0.00000000      -0.00793013       0.00319005
Ni      48.26936797      55.18423810      48.26936797      -0.00147479       0.00233464      -0.00147479
Ni      50.00000000      55.26106440      50.00000000       0.00000000       0.01210589       0.00000000
Ni      48.26936797      55.18423810      51.73063203      -0.00147479       0.00233464       0.00147479
Ni      50.00000000      55.15405014      53.43501288       0.00000000      -0.00793013      -0.00319005
Ni      51.79936686      46.48798596      46.48798596       0.02321539      -0.02513232      -0.02513232
Ni      51.73063203      44.81576190      48.26936797       0.00147479      -0.00233464      -0.00147479
Ni      51.74563807      46.51726041      50.00000000       0.00554996       0.00585511       0.00000000
Ni      53.43501288      44.84594986      50.00000000      -0.00319005       0.00793013       0.00000000
Ni      53.51201404      46.48798596      48.20063314       0.02513232      -0.02513232      -0.02321539
Ni      51.73063203      44.81576190      51.73063203       0.00147479      -0.00233464       0.00147479
Ni      51.79936686      46.48798596      53.51201404       0.02321538      -0.02513230       0.02513229
Ni      53.51201404      46.48798596      51.79936686       0.02513230      -0.02513230       0.02321538
Ni      51.73063203      48.26936797      44.81576190       0.00147479      -0.00147479      -0.00233464
Ni      51.74563807      50.00000000      46.51726041       0.00554996       0.00000000       0.00585511
Ni      53.51201404      48.20063314      46.48798596       0.02513231      -0.02321539      -0.02513231
Ni      53.43501288      50.00000000      44.84594986      -0.00319005      -0.00000000       0.00793013
Ni      51.76189585      48.23810415      48.23810415      -0.00293101       0.00293101       0.00293101
Ni      51.73592478      50.00000000      50.00000000      -0.00778470      -0.00000000      -0.00000000
Ni      53.48273959      48.25436193      50.00000000      -0.00585511      -0.00554996       0.00000000
Ni      53.48273959      50.00000000      48.25436193      -0.00585511       0.00000000      -0.00554996
Ni      51.76189585      48.23810415      51.76189585      -0.00293101       0.00293101      -0.00293101
Ni      51.74563807      50.00000000      53.48273959       0.00554996      -0.00000000      -0.00585511
Ni      53.51201404      48.20063314      53.51201404       0.02513231      -0.02321539       0.02513231
Ni      53.48273959      50.00000000      51.74563807      -0.00585511      -0.00000000       0.00554996
Ni      51.73063203      48.26936797      55.18423810       0.00147479      -0.00147479       0.00233464
Ni      53.43501288      50.00000000      55.15405014      -0.00319005       0.00000000      -0.00793013
Ni      51.73063203      51.73063203      44.81576190       0.00147479       0.00147479      -0.00233464
Ni      51.79936686      53.51201404      46.48798596       0.02321539       0.02513231      -0.02513231
Ni      53.51201404      51.79936686      46.48798596       0.02513230       0.02321538      -0.02513230
Ni      51.76189585      51.76189585      48.23810415      -0.00293101      -0.00293101       0.00293101
Ni      51.74563807      53.48273959      50.00000000       0.00554996      -0.00585511      -0.00000000
Ni      53.48273959      51.74563807      50.00000000      -0.00585511       0.00554996      -0.00000000
Ni      53.51201404      53.51201404      48.20063314       0.02513230       0.02513230      -0.02321538
Ni      51.76189585      51.76189585      51.76189585      -0.00293101      -0.00293101      -0.00293101
Ni      51.79936686      53.51201404      53.51201404       0.02321539       0.02513232       0.02513231
Ni      53.51201404      51.79936686      53.51201404       0.02513232       0.02321539       0.02513232
Ni      53.51201404      53.51201404      51.79936686       0.02513232       0.02513232       0.02321539
Ni      51.73063203      51.73063203      55.18423810       0.00147479       0.00147479       0.00233464
Ni      51.73063203      55.18423810      48.26936797       0.00147479       0.00233464      -0.00147479
Ni      53.43501288      55.15405014      50.00000000      -0.00319005      -0.00793013       0.00000000
Ni      51.73063203      55.18423810      51.73063203       0.00147479       0.00233464       0.00147479
Ni      55.15405014      46.56498712      50.00000000      -0.00793013       0.00319005      -0.00000000
Ni      55.15405014      50.00000000      46.56498712      -0.00793013      -0.00000000       0.00319005
Ni      55.18423810      48.26936797      48.26936797       0.00233464      -0.00147479      -0.00147479
Ni      55.26106440      50.00000000      50.00000000       0.01210589       0.00000000       0.00000000
Ni      55.18423810      48.26936797      51.73063203       0.00233464      -0.00147479       0.00147479
Ni      55.15405014      50.00000000      53.43501288      -0.00793013      -0.00000000      -0.00319005
Ni      55.18423810      51.73063203      48.26936797       0.00233464       0.00147479      -0.00147479
Ni      55.15405014      53.43501288      50.00000000      -0.00793013      -0.00319005       0.00000000
Ni      55.18423810      51.73063203      51.73063203       0.00233464       0.00147479       0.00147479
