116
Lattice="100.0 0.0 0.0 0.0 100.0 0.0 0.0 0.0 100.0" Properties=species:S:1:pos:R:3:forces:R:3 energy=-669.5168408465701 free_energy=-669.5168408465701 pbc="T T T"
Rh      44.38815404      46.25827065      50.00000000      -0.00700479       0.04513043       0.00000000
Rh      46.25827065      44.38815404      50.00000000       0.04513043      -0.00700479       0.00000000
Rh      46.13679645      46.13679645      48.01628292       0.00697183       0.00697183      -0.00907641
Rh      46.13679645      46.13679645      51.98371708       0.00697183       0.00697183       0.00907641
Rh      44.38815404      50.00000000      46.25827065      -0.00700479       0.00000000       0.04513043
Rh      46.13679645      48.01628292      46.13679645       0.00697183      -0.00907641       0.00697183
Rh      46.25827065      50.00000000      44.38815404       0.04513043       0.00000000      -0.00700479
Rh      44.35869059      48.12398828      48.12398828       0.03102847      -0.00033030      -0.00033030
Rh      44.29420515      50.00000000      50.00000000      -0.01915094      -0.00000000       0.00000000
Rh      46.21986221      48.09334317      50.00000000      -0.03480852       0.01723814       0.00000000
Rh      46.21986221      50.00000000      48.09334317      -0.03480852       0.00000000       0.01723814
Rh      44.35869059      48.12398828      51.87601172       0.03102847      -0.00033030       0.00033030
Rh      44.38815404      50.00000000      53.74172935      -0.00700479      -0.00000000      -0.04513043
Rh      46.13679645      48.01628292      53.86320355       0.00697183      -0.00907641      -0.00697183
Rh      46.21986221      50.00000000      51.90665683      -0.03480852      -0.00000000      -0.01723814
Rh      46.25827065      50.00000000      55.61184596       0.04513043      -0.00000000       0.00700479
Rh      46.13679645      51.98371708      46.13679645       0.00697183       0.00907641       0.00697183
Rh      44.35869059      51.87601172      48.12398828       0.03102847       0.00033030      -0.00033030
Rh      44.38815404      53.74172935      50.00000000      -0.00700479      -0.04513043      -0.00000000
Rh      46.21986221      51.90665683      50.00000000      -0.03480852      -0.01723814      -0.00000000
Rh      46.13679645      53.86320355      48.01628292       0.00697183      -0.00697183      -0.00907641
Rh      44.35869059      51.87601172      51.87601172       0.03102847       0.00033030       0.00033030
Rh      46.13679645      51.98371708      53.86320355       0.00697183       0.00907641      -0.00697183
Rh      46.13679645      53.86320355      51.98371708       0.00697183      -0.00697183       0.00907641
Rh      46.25827065      55.61184596      50.00000000       0.04513043       0.00700479       0.00000000
Rh      48.01628292      46.13679645      46.13679645      -0.00907641       0.00697183       0.00697183
Rh      50.00000000      44.38815404      46.25827065       0.00000000      -0.00700479       0.04513043
Rh      50.00000000      46.25827065      44.38815404       0.00000000       0.04513043      -0.00700479
Rh      48.12398828      44.35869059      48.12398828      -0.00033030       0.03102847      -0.00033030
Rh      48.09334317      46.21986221      50.00000000       0.01723814      -0.03480852       0.00000000
Rh      50.00000000      44.29420515      50.00000000      -0.00000000      -0.01915094       0.00000000
Rh      50.00000000      46.21986221      48.09334317       0.00000000      -0.03480852       0.01723814
Rh      48.12398828      44.35869059      51.87601172      -0.00033030       0.03102847       0.00033030
Rh      48.01628292      46.13679645      53.86320355      -0.00907641       0.00697183      -0.00697183
Rh      50.00000000      44.38815404      53.74172935      -0.00000000      -0.00700479      -0.04513043
Rh      50.00000000      46.21986221      51.90665683      -0.00000000      -0.03480852      -0.01723814
Rh      50.00000000      46.25827065      55.61184596      -0.00000000       0.04513043       0.00700479
Rh      48.12398828      48.12398828      44.35869059      -0.00033030      -0.00033030       0.03102847
Rh      48.09334317      50.00000000      46.21986221       0.01723814       0.00000000      -0.03480852
Rh      50.00000000      48.09334317      46.21986221       0.00000000       0.01723814      -0.03480852
Rh      50.00000000      50.00000000      44.29420515      -0.00000000      -0.00000000      -0.01915094
Rh      48.06287070      48.06287070      48.06287070       0.00742495       0.00742495       0.00742495
Rh      48.10730731      50.00000000      50.00000000       0.00288542       0.00000000       0.00000000
Rh      50.00000000      48.10730731      50.00000000       0.00000000       0.00288542       0.00000000
Rh      50.00000000      50.00000000      48.10730731       0.00000000       0.00000000       0.00288542
Rh      48.06287070      48.06287070      51.93712930       0.00742495       0.00742495      -0.00742495
Rh      48.09334317      50.00000000      53.78013779       0.01723814       0.00000000       0.03480852
Rh      50.00000000      48.09334317      53.78013779       0.00000000       0.01723814       0.03480852
Rh      50.00000000      50.00000000      51.89269269       0.00000000       0.00000000      -0.00288542
Rh      48.12398828      48.12398828      55.64130941      -0.00033030      -0.00033030      -0.03102847
Rh      50.00000000      50.00000000      55.70579485      -0.00000000      -0.00000000       0.01915094
Rh      48.12398828      51.87601172      44.35869059      -0.00033030       0.00033030       0.03102847
Rh      48.01628292      53.86320355      46.13679645      -0.00907641      -0.00697183       0.00697183
Rh      50.00000000      51.90665683      46.21986221      -0.00000000      -0.01723814      -0.03480852
Rh      50.00000000      53.74172935      44.38815404      -0.00000000      -0.04513043      -0.00700479
Rh      48.06287070      51.93712930      48.06287070       0.00742495      -0.00742495       0.00742495
Rh      48.09334317      53.78013779      50.00000000       0.01723814       0.03480852      -0.00000000
Rh      50.00000000      51.89269269      50.00000000      -0.00000000      -0.00288542      -0.00000000
Rh      50.00000000      53.78013779      48.09334317       0.00000000       0.03480852       0.01723814
Rh      48.06287070      51.93712930      51.93712930       0.00742495      -0.00742495      -0.00742495
Rh      48.01628292      53.86320355      53.86320355      -0.00907641      -0.00697183      -0.00697183
Rh      50.00000000      51.90665683      53.78013779      -0.00000000      -0.01723814       0.03480852
Rh      50.00000000      53.78013779      51.90665683       0.00000000       0.03480852      -0.01723814
Rh      48.12398828      51.87601172      55.64130941      -0.00033030       0.00033030      -0.03102847
Rh      50.00000000      53.74172935      55.61184596      -0.00000000      -0.04513043       0.00700479
Rh      50.00000000      55.61184596      46.25827065      -0.00000000       0.00700479       0.04513043
Rh      48.12398828      55.64130941      48.12398828      -0.00033030      -0.03102847      -0.00033030
Rh      50.00000000      55.70579485      50.00000000      -0.00000000       0.01915094       0.00000000
Rh      48.12398828      55.64130941      51.87601172      -0.00033030      -0.03102847       0.00033030
Rh      50.00000000      55.61184596      53.74172935      -0.00000000       0.00700479      -0.04513043
Rh      51.98371708      46.13679645      46.13679645       0.00907641       0.00697183       0.00697183
Rh      51.87601172      44.35869059      48.12398828       0.00033030       0.03102847      -0.00033030
Rh      51.90665683      46.21986221      50.00000000      -0.01723814      -0.03480852      -0.00000000
Rh      53.74172935      44.38815404      50.00000000      -0.04513043      -0.00700479      -0.00000000
Rh      53.86320355      46.13679645      48.01628292      -0.00697183       0.00697183      -0.00907641
Rh      51.87601172      44.35869059      51.87601172       0.00033030       0.03102847       0.00033030
Rh      51.98371708      46.13679645      53.86320355       0.00907641       0.00697183      -0.00697183
Rh      53.86320355      46.13679645      51.98371708      -0.00697183       0.00697183       0.00907641
Rh      51.87601172      48.12398828      44.35869059       0.00033030      -0.00033030       0.03102847
Rh      51.90665683      50.00000000      46.21986221      -0.01723814      -0.00000000      -0.03480852
Rh      53.86320355      48.01628292      46.13679645      -0.00697183      -0.00907641       0.00697183
Rh      53.74172935      50.00000000      44.38815404      -0.04513043      -0.00000000      -0.00700479
Rh      51.93712930      48.06287070      48.06287070      -0.00742495       0.00742495       0.00742495
Rh      51.89269269      50.00000000      50.00000000      -0.00288542      -0.00000000      -0.00000000
Rh      53.78013779      48.09334317      50.00000000       0.03480852       0.01723814      -0.00000000
Rh      53.78013779      50.00000000      48.09334317       0.03480852       0.00000000       0.01723814
Rh      51.93712930      48.06287070      51.93712930      -0.00742495       0.00742495      -0.00742495
Rh      51.90665683      50.00000000      53.78013779      -0.01723814      -0.00000000       0.03480852
Rh      53.86320355      48.01628292      53.86320355      -0.00697183      -0.00907641      -0.00697183
Rh      53.78013779      50.00000000      51.90665683       0.03480852       0.00000000      -0.01723814
Rh      51.87601172      48.12398828      55.64130941       0.00033030      -0.00033030      -0.03102847
Rh      53.74172935      50.00000000      55.61184596      -0.04513043      -0.00000000       0.00700479
Rh      51.87601172      51.87601172      44.35869059       0.00033030       0.00033030       0.03102847
Rh      51.98371708      53.86320355      46.13679645       0.00907641      -0.00697183       0.00697183
Rh      53.86320355      51.98371708      46.13679645      -0.00697183       0.00907641       0.00697183
Rh      51.93712930      51.93712930      48.06287070      -0.00742495      -0.00742495       0.00742495
Rh      51.90665683      53.78013779      50.00000000      -0.01723814       0.03480852      -0.00000000
Rh      53.78013779      51.90665683      50.00000000       0.03480852      -0.01723814      -0.00000000
Rh      53.86320355      53.86320355      48.01628292      -0.00697183      -0.00697183      -0.00907641
Rh      51.93712930      51.93712930      51.93712930      -0.00742495      -0.00742495      -0.00742495
Rh      51.98371708      53.86320355      53.86320355       0.00907641      -0.00697183      -0.00697183
Rh      53.86320355      51.98371708      53.86320355      -0.00697183       0.00907641      -0.00697183
Rh      53.86320355      53.86320355      51.98371708      -0.00697183      -0.00697183       0.00907641
Rh      51.87601172      51.87601172      55.64130941       0.00033030       0.00033030      -0.03102847
Rh      51.87601172      55.64130941      48.12398828       0.00033030      -0.03102847      -0.00033030
Rh      53.74172935      55.61184596      50.00000000      -0.04513043       0.00700479      -0.00000000
Rh      51.87601172      55.64130941      51.87601172       0.00033030      -0.03102847       0.00033030
Rh      55.61184596      46.25827065      50.00000000       0.00700479       0.04513043       0.00000000
Rh      55.61184596      50.00000000      46.25827065       0.00700479      -0.00000000       0.04513043
Rh      55.64130941      48.12398828      48.12398828      -0.03102847      -0.00033030      -0.00033030
Rh      55.70579485      50.00000000      50.00000000       0.01915094       0.00000000       0.00000000
Rh      55.64130941      48.12398828      51.87601172      -0.03102847      -0.00033030       0.00033030
Rh      55.61184596      50.00000000      53.74172935       0.00700479      -0.00000000      -0.04513043
Rh      55.64130941      51.87601172      48.12398828      -0.03102847       0.00033030      -0.00033030
Rh      55.61184596      53.74172935      50.00000000       0.00700479      -0.04513043      -0.00000000
Rh      55.64130941      51.87601172      51.87601172      -0.03102847       0.00033030       0.00033030
