116
Lattice="100.0 0.0 0.0 0.0 100.0 0.0 0.0 0.0 100.0" Properties=species:S:1:pos:R:3:forces:R:3 energy=-873.8440313369522 free_energy=-873.8440313369522 pbc="T T T"
Ru      44.34494796      46.25804052      50.00000000      -0.00688819       0.01496199       0.00000000
Ru      46.25804052      44.34494796      50.00000000       0.01496199      -0.00688819      -0.00000000
Ru      46.17998465      46.17998465      48.12963952      -0.01155678      -0.01155678       0.00456163
Ru      46.17998465      46.17998465      51.87036048      -0.01155678      -0.01155678      -0.00456163
Ru      44.34494796      50.00000000      46.25804052      -0.00688819       0.00000000       0.01496199
Ru      46.17998465      48.12963952      46.17998465      -0.01155678       0.00456163      -0.01155678
Ru      46.25804052      50.00000000      44.34494796       0.01496199       0.00000000      -0.00688819
Ru      44.36183988      48.14940622      48.14940622      -0.00144933       0.00492639       0.00492639
Ru      44.46420303      50.00000000      50.00000000      -0.02536395      -0.00000000       0.00000000
Ru      46.21666948      48.05032935      50.00000000      -0.01089384       0.01570415      -0.00000000
Ru      46.21666948      50.00000000      48.05032935      -0.01089384       0.00000000       0.01570415
Ru      44.36183988      48.14940622      51.85059378      -0.00144933       0.00492639      -0.00492639
Ru      44.34494796      50.00000000      53.74195948      -0.00688819       0.00000000      -0.01496199
Ru      46.17998465      48.12963952      53.82001535      -0.01155678       0.00456163       0.01155678
Ru      46.21666948      50.00000000      51.94967065      -0.01089384       0.00000000      -0.01570415
Ru      46.25804052      50.00000000      55.65505204       0.01496199       0.00000000       0.00688819
Ru      46.17998465      51.87036048      46.17998465      -0.01155678      -0.00456163      -0.01155678
Ru      44.36183988      51.85059378      48.14940622      -0.00144933      -0.00492639       0.00492639
Ru      44.34494796      53.74195948      50.00000000      -0.00688819      -0.01496199      -0.00000000
Ru      46.21666948      51.94967065      50.00000000      -0.01089384      -0.01570415      -0.00000000
Ru      46.17998465      53.82001535      48.12963952      -0.01155678       0.01155678       0.00456163
Ru      44.36183988      51.85059378      51.85059378      -0.00144933      -0.00492639      -0.00492639
Ru      46.17998465      51.87036048      53.82001535      -0.01155678      -0.00456163       0.01155678
Ru      46.17998465      53.82001535      51.87036048      -0.01155678       0.01155678      -0.00456163
Ru      46.25804052      55.65505204      50.00000000       0.01496199       0.00688819      -0.00000000
Ru      48.12963952      46.17998465      46.17998465       0.00456163      -0.01155678      -0.01155678
Ru      50.00000000      44.34494796      46.25804052       0.00000000      -0.00688819       0.01496199
Ru      50.00000000      46.25804052      44.34494796       0.00000000       0.01496199      -0.00688819
Ru      48.14940622      44.36183988      48.14940622       0.00492639      -0.00144933       0.00492639
Ru      48.05032935      46.21666948      50.00000000       0.01570415      -0.01089384      -0.00000000
Ru      50.00000000      44.46420303      50.00000000      -0.00000000      -0.02536395       0.00000000
Ru      50.00000000      46.21666948      48.05032935       0.00000000      -0.01089384       0.01570415
Ru      48.14940622      44.36183988      51.85059378       0.00492639      -0.00144933      -0.00492639
Ru      48.12963952      46.17998465      53.82001535       0.00456163      -0.01155678       0.01155678
Ru      50.00000000      44.34494796      53.74195948       0.00000000      -0.00688819      -0.01496199
Ru      50.00000000      46.21666948      51.94967065       0.00000000      -0.01089384      -0.01570415
Ru      50.00000000      46.25804052      55.65505204       0.00000000       0.01496199       0.00688819
Ru      48.14940622      48.14940622      44.36183988       0.00492639       0.00492639      -0.00144933
Ru      48.05032935      50.00000000      46.21666948       0.01570415       0.00000000      -0.01089384
Ru      50.00000000      48.05032935      46.21666948       0.00000000       0.01570415      -0.01089384
Ru      50.00000000      50.00000000      44.46420303      -0.00000000      -0.00000000      -0.02536395
Ru      48.03410343      48.03410343      48.03410343       0.00094542       0.00094542       0.00094542
Ru      48.11472822      50.00000000      50.00000000       0.01874852       0.00000000      -0.00000000
Ru      50.00000000      48.11472822      50.00000000       0.00000000       0.01874852       0.00000000
Ru      50.00000000      50.00000000      48.11472822       0.00000000       0.00000000       0.01874852
Ru      48.03410343      48.03410343      51.96589657       0.00094542       0.00094542      -0.00094542
Ru      48.05032935      50.00000000      53.78333052       0.01570415       0.00000000       0.01089384
Ru      50.00000000      48.05032935      53.78333052       0.00000000       0.01570415       0.01089384
Ru      50.00000000      50.00000000      51.88527178       0.00000000       0.00000000      -0.01874852
Ru      48.14940622      48.14940622      55.63816012       0.00492639       0.00492639       0.00144933
Ru      50.00000000      50.00000000      55.53579697      -0.00000000      -0.00000000       0.02536395
Ru      48.14940622      51.85059378      44.36183988       0.00492639      -0.00492639      -0.00144933
Ru      48.12963952      53.82001535      46.17998465       0.00456163       0.01155678      -0.01155678
Ru      50.00000000      51.94967065      46.21666948      -0.00000000      -0.01570415      -0.01089384
Ru      50.00000000      53.74195948      44.34494796       0.00000000      -0.01496199      -0.00688819
Ru      48.03410343      51.96589657      48.03410343       0.00094542      -0.00094542       0.00094542
Ru      48.05032935      53.78333052      50.00000000       0.01570415       0.01089384      -0.00000000
Ru      50.00000000      51.88527178      50.00000000       0.00000000      -0.01874852       0.00000000
Ru      50.00000000      53.78333052      48.05032935      -0.00000000       0.01089384       0.01570415
Ru      48.03410343      51.96589657      51.96589657       0.00094542      -0.00094542      -0.00094542
Ru      48.12963952      53.82001535      53.82001535       0.00456163       0.01155678       0.01155678
Ru      50.00000000      51.94967065      53.78333052       0.00000000      -0.01570415       0.01089384
Ru      50.00000000      53.78333052      51.94967065      -0.00000000       0.01089384      -0.01570415
Ru      48.14940622      51.85059378      55.63816012       0.00492639      -0.00492639       0.00144933
Ru      50.00000000      53.74195948      55.65505204      -0.00000000      -0.01496199       0.00688819
Ru      50.00000000      55.65505204      46.25804052       0.00000000       0.00688819       0.01496199
Ru      48.14940622      55.63816012      48.14940622       0.00492639       0.00144933       0.00492639
Ru      50.00000000      55.53579697      50.00000000      -0.00000000       0.02536395       0.00000000
Ru      48.14940622      55.63816012      51.85059378       0.00492639       0.00144933      -0.00492639
Ru      50.00000000      55.65505204      53.74195948       0.00000000       0.00688819      -0.01496199
Ru      51.87036048      46.17998465      46.17998465      -0.00456163      -0.01155678      -0.01155678
Ru      51.85059378      44.36183988      48.14940622      -0.00492639      -0.00144933       0.00492639
Ru      51.94967065      46.21666948      50.00000000      -0.01570415      -0.01089384      -0.00000000
Ru      53.74195948      44.34494796      50.00000000      -0.01496199      -0.00688819      -0.00000000
Ru      53.82001535      46.17998465      48.12963952       0.01155678      -0.01155678       0.00456163
Ru      51.85059378      44.36183988      51.85059378      -0.00492639      -0.00144933      -0.00492639
Ru      51.87036048      46.17998465      53.82001535      -0.00456163      -0.01155678       0.01155678
Ru      53.82001535      46.17998465      51.87036048       0.01155678      -0.01155678      -0.00456163
Ru      51.85059378      48.14940622      44.36183988      -0.00492639       0.00492639      -0.00144933
Ru      51.94967065      50.00000000      46.21666948      -0.01570415       0.00000000      -0.01089384
Ru      53.82001535      48.12963952      46.17998465       0.01155678       0.00456163      -0.01155678
Ru      53.74195948      50.00000000      44.34494796      -0.01496199       0.00000000      -0.00688819
Ru      51.96589657      48.03410343      48.03410343      -0.00094542       0.00094542       0.00094542
Ru      51.88527178      50.00000000      50.00000000      -0.01874852       0.00000000       0.00000000
Ru      53.78333052      48.05032935      50.00000000       0.01089384       0.01570415      -0.00000000
Ru      53.78333052      50.00000000      48.05032935       0.01089384       0.00000000       0.01570415
Ru      51.96589657      48.03410343      51.96589657      -0.00094542       0.00094542      -0.00094542
Ru      51.94967065      50.00000000      53.78333052      -0.01570415       0.00000000       0.01089384
Ru      53.82001535      48.12963952      53.82001535       0.01155678       0.00456163       0.01155678
Ru      53.78333052      50.00000000      51.94967065       0.01089384       0.00000000      -0.01570415
Ru      51.85059378      48.14940622      55.63816012      -0.00492639       0.00492639       0.00144933
Ru      53.74195948      50.00000000      55.65505204      -0.01496199       0.00000000       0.00688819
Ru      51.85059378      51.85059378      44.36183988      -0.00492639      -0.00492639      -0.00144933
Ru      51.87036048      53.82001535      46.17998465      -0.00456163       0.01155678      -0.01155678
Ru      53.82001535      51.87036048      46.17998465       0.01155678      -0.00456163      -0.01155678
Ru      51.96589657      51.96589657      48.03410343      -0.00094542      -0.00094542       0.00094542
Ru      51.94967065      53.78333052      50.00000000      -0.01570415       0.01089384      -0.00000000
Ru      53.78333052      51.94967065      50.00000000       0.01089384      -0.01570415      -0.00000000
Ru      53.82001535      53.82001535      48.12963952       0.01155678       0.01155678       0.00456163
Ru      51.96589657      51.96589657      51.96589657      -0.00094542      -0.00094542      -0.00094542
Ru      51.87036048      53.82001535      53.82001535      -0.00456163       0.01155678       0.01155678
Ru      53.82001535      51.87036048      53.82001535       0.01155678      -0.00456163       0.01155678
Ru      53.82001535      53.82001535      51.87036048       0.01155678       0.01155678      -0.00456163
Ru      51.85059378      51.85059378      55.63816012      -0.00492639      -0.00492639       0.00144933
Ru      51.85059378      55.63816012      48.14940622      -0.00492639       0.00144933       0.00492639
Ru      53.74195948      55.65505204      50.00000000      -0.01496199       0.00688819      -0.00000000
Ru      51.85059378      55.63816012      51.85059378      -0.00492639       0.00144933      -0.00492639
Ru      55.65505204      46.25804052      50.00000000       0.00688819       0.01496199      -0.00000000
Ru      55.65505204      50.00000000      46.25804052       0.00688819       0.00000000       0.01496199
Ru      55.63816012      48.14940622      48.14940622       0.00144933       0.00492639       0.00492639
Ru      55.53579697      50.00000000      50.00000000       0.02536395      -0.00000000       0.00000000
Ru      55.63816012      48.14940622      51.85059378       0.00144933       0.00492639      -0.00492639
Ru      55.65505204      50.00000000      53.74195948       0.00688819       0.00000000      -0.01496199
Ru      55.63816012      51.85059378      48.14940622       0.00144933      -0.00492639       0.00492639
Ru      55.65505204      53.74195948      50.00000000       0.00688819      -0.01496199      -0.00000000
Ru      55.63816012      51.85059378      51.85059378       0.00144933      -0.00492639      -0.00492639
