116
Lattice="100.0 0.0 0.0 0.0 100.0 0.0 0.0 0.0 100.0" Properties=species:S:1:pos:R:3:forces:R:3 energy=-330.2721415909531 free_energy=-330.2721415909531 pbc="T T T"
Cu      44.64743856      46.43009333      50.00000000      -0.01034358       0.01713059      -0.00000000
Cu      46.43009333      44.64743856      50.00000000       0.01713059      -0.01034358      -0.00000000
Cu      46.32190568      46.32190568      48.10713106       0.02155045       0.02155045      -0.01597022
Cu      46.32190568      46.32190568      51.89286894       0.02155045       0.02155045       0.01597022
Cu      44.64743856      50.00000000      46.43009333      -0.01034358      -0.00000000       0.01713059
Cu      46.32190568      48.10713106      46.32190568       0.02155045      -0.01597022       0.02155045
Cu      46.43009333      50.00000000      44.64743856       0.01713059      -0.00000000      -0.01034358
Cu      44.60806195      48.20240781      48.20240781       0.01042952      -0.00056775      -0.00056775
Cu      44.54719363      50.00000000      50.00000000      -0.02755802      -0.00000000      -0.00000000
Cu      46.39397136      48.19012656      50.00000000       0.00123030       0.00781499      -0.00000000
Cu      46.39397136      50.00000000      48.19012656       0.00123030      -0.00000000       0.00781499
Cu      44.60806195      48.20240781      51.79759219       0.01042952      -0.00056775       0.00056775
Cu      44.64743856      50.00000000      53.56990667      -0.01034358      -0.00000000      -0.01713059
Cu      46.32190568      48.10713106      53.67809432       0.02155045      -0.01597022      -0.02155045
Cu      46.39397136      50.00000000      51.80987344       0.00123030      -0.00000000      -0.00781499
Cu      46.43009333      50.00000000      55.35256144       0.01713059      -0.00000000       0.01034358
Cu      46.32190568      51.89286894      46.32190568       0.02155045       0.01597022       0.02155045
Cu      44.60806195      51.79759219      48.20240781       0.01042952       0.00056775      -0.00056775
Cu      44.64743856      53.56990667      50.00000000      -0.01034358      -0.01713059      -0.00000000
Cu      46.39397136      51.80987344      50.00000000       0.00123030      -0.00781499       0.00000000
Cu      46.32190568      53.67809432      48.10713106       0.02155045      -0.02155045      -0.01597022
Cu      44.60806195      51.79759219      51.79759219       0.01042952       0.00056775       0.00056775
Cu      46.32190568      51.89286894      53.67809432       0.02155045       0.01597022      -0.02155045
Cu      46.32190568      53.67809432      51.89286894       0.02155045      -0.02155045       0.01597022
Cu      46.43009333      55.35256144      50.00000000       0.01713059       0.01034358       0.00000000
Cu      48.10713106      46.32190568      46.32190568      -0.01597022       0.02155045       0.02155045
Cu      50.00000000      44.64743856      46.43009333      -0.00000000      -0.01034358       0.01713059
Cu      50.00000000      46.43009333      44.64743856      -0.00000000       0.01713059      -0.01034358
Cu      48.20240781      44.60806195      48.20240781      -0.00056775       0.01042952      -0.00056775
Cu      48.19012656      46.39397136      50.00000000       0.00781499       0.00123030       0.00000000
Cu      50.00000000      44.54719363      50.00000000      -0.00000000      -0.02755802      -0.00000000
Cu      50.00000000      46.39397136      48.19012656      -0.00000000       0.00123030       0.00781499
Cu      48.20240781      44.60806195      51.79759219      -0.00056775       0.01042952       0.00056775
Cu      48.10713106      46.32190568      53.67809432      -0.01597022       0.02155045      -0.02155045
Cu      50.00000000      44.64743856      53.56990667      -0.00000000      -0.01034358      -0.01713059
Cu      50.00000000      46.39397136      51.80987344      -0.00000000       0.00123030      -0.00781499
Cu      50.00000000      46.43009333      55.35256144       0.00000000       0.01713059       0.01034358
Cu      48.20240781      48.20240781      44.60806195      -0.00056775      -0.00056775       0.01042952
Cu      48.19012656      50.00000000      46.39397136       0.00781499      -0.00000000       0.00123030
Cu      50.00000000      48.19012656      46.39397136      -0.00000000       0.00781499       0.00123030
Cu      50.00000000      50.00000000      44.54719363      -0.00000000      -0.00000000      -0.02755802
Cu      48.16410441      48.16410441      48.16410441      -0.00278962      -0.00278962      -0.00278962
Cu      48.19569057      50.00000000      50.00000000       0.01201297      -0.00000000      -0.00000000
Cu      50.00000000      48.19569057      50.00000000      -0.00000000       0.01201297      -0.00000000
Cu      50.00000000      50.00000000      48.19569057       0.00000000       0.00000000       0.01201297
Cu      48.16410441      48.16410441      51.83589559      -0.00278962      -0.00278962       0.00278962
Cu      48.19012656      50.00000000      53.60602864       0.00781499      -0.00000000      -0.00123030
Cu      50.00000000      48.19012656      53.60602864      -0.00000000       0.00781499      -0.00123030
Cu      50.00000000      50.00000000      51.80430943       0.00000000       0.00000000      -0.01201297
Cu      48.20240781      48.20240781      55.39193805      -0.00056775      -0.00056775      -0.01042952
Cu      50.00000000      50.00000000      55.45280637      -0.00000000      -0.00000000       0.02755802
Cu      48.20240781      51.79759219      44.60806195      -0.00056775       0.00056775       0.01042952
Cu      48.10713106      53.67809432      46.32190568      -0.01597022      -0.02155045       0.02155045
Cu      50.00000000      51.80987344      46.39397136       0.00000000      -0.00781499       0.00123030
Cu      50.00000000      53.56990667      44.64743856      -0.00000000      -0.01713059      -0.01034358
Cu      48.16410441      51.83589559      48.16410441      -0.00278962       0.00278962      -0.00278962
Cu      48.19012656      53.60602864      50.00000000       0.00781499      -0.00123030       0.00000000
Cu      50.00000000      51.80430943      50.00000000       0.00000000      -0.01201297       0.00000000
Cu      50.00000000      53.60602864      48.19012656      -0.00000000      -0.00123030       0.00781499
Cu      48.16410441      51.83589559      51.83589559      -0.00278962       0.00278962       0.00278962
Cu      48.10713106      53.67809432      53.67809432      -0.01597022      -0.02155045      -0.02155045
Cu      50.00000000      51.80987344      53.60602864      -0.00000000      -0.00781499      -0.00123030
Cu      50.00000000      53.60602864      51.80987344      -0.00000000      -0.00123030      -0.00781499
Cu      48.20240781      51.79759219      55.39193805      -0.00056775       0.00056775      -0.01042952
Cu      50.00000000      53.56990667      55.35256144      -0.00000000      -0.01713059       0.01034358
Cu      50.00000000      55.35256144      46.43009333      -0.00000000       0.01034358       0.01713059
Cu      48.20240781      55.39193805      48.20240781      -0.00056775      -0.01042952      -0.00056775
Cu      50.00000000      55.45280637      50.00000000      -0.00000000       0.02755802      -0.00000000
Cu      48.20240781      55.39193805      51.79759219      -0.00056775      -0.01042952       0.00056775
Cu      50.00000000      55.35256144      53.56990667      -0.00000000       0.01034358      -0.01713059
Cu      51.89286894      46.32190568      46.32190568       0.01597022       0.02155045       0.02155045
Cu      51.79759219      44.60806195      48.20240781       0.00056775       0.01042952      -0.00056775
Cu      51.80987344      46.39397136      50.00000000      -0.00781499       0.00123030      -0.00000000
Cu      53.56990667      44.64743856      50.00000000      -0.01713059      -0.01034358      -0.00000000
Cu      53.67809432      46.32190568      48.10713106      -0.02155045       0.02155045      -0.01597022
Cu      51.79759219      44.60806195      51.79759219       0.00056775       0.01042952       0.00056775
Cu      51.89286894      46.32190568      53.67809432       0.01597022       0.02155045      -0.02155045
Cu      53.67809432      46.32190568      51.89286894      -0.02155045       0.02155045       0.01597022
Cu      51.79759219      48.20240781      44.60806195       0.00056775      -0.00056775       0.01042952
Cu      51.80987344      50.00000000      46.39397136      -0.00781499       0.00000000       0.00123030
Cu      53.67809432      48.10713106      46.32190568      -0.02155045      -0.01597022       0.02155045
Cu      53.56990667      50.00000000      44.64743856      -0.01713059      -0.00000000      -0.01034358
Cu      51.83589559      48.16410441      48.16410441       0.00278962      -0.00278962      -0.00278962
Cu      51.80430943      50.00000000      50.00000000      -0.01201297       0.00000000       0.00000000
Cu      53.60602864      48.19012656      50.00000000      -0.00123030       0.00781499       0.00000000
Cu      53.60602864      50.00000000      48.19012656      -0.00123030      -0.00000000       0.00781499
Cu      51.83589559      48.16410441      51.83589559       0.00278962      -0.00278962       0.00278962
Cu      51.80987344      50.00000000      53.60602864      -0.00781499      -0.00000000      -0.00123030
Cu      53.67809432      48.10713106      53.67809432      -0.02155045      -0.01597022      -0.02155045
Cu      53.60602864      50.00000000      51.80987344      -0.00123030      -0.00000000      -0.00781499
Cu      51.79759219      48.20240781      55.39193805       0.00056775      -0.00056775      -0.01042952
Cu      53.56990667      50.00000000      55.35256144      -0.01713059       0.00000000       0.01034358
Cu      51.79759219      51.79759219      44.60806195       0.00056775       0.00056775       0.01042952
Cu      51.89286894      53.67809432      46.32190568       0.01597022      -0.02155045       0.02155045
Cu      53.67809432      51.89286894      46.32190568      -0.02155045       0.01597022       0.02155045
Cu      51.83589559      51.83589559      48.16410441       0.00278962       0.00278962      -0.00278962
Cu      51.80987344      53.60602864      50.00000000      -0.00781499      -0.00123030      -0.00000000
Cu      53.60602864      51.80987344      50.00000000      -0.00123030      -0.00781499       0.00000000
Cu      53.67809432      53.67809432      48.10713106      -0.02155045      -0.02155045      -0.01597022
Cu      51.83589559      51.83589559      51.83589559       0.00278962       0.00278962       0.00278962
Cu      51.89286894      53.67809432      53.67809432       0.01597022      -0.02155045      -0.02155045
Cu      53.67809432      51.89286894      53.67809432      -0.02155045       0.01597022      -0.02155045
Cu      53.67809432      53.67809432      51.89286894      -0.02155045      -0.02155045       0.01597022
Cu      51.79759219      51.79759219      55.39193805       0.00056775       0.00056775      -0.01042952
Cu      51.79759219      55.39193805      48.20240781       0.00056775      -0.01042952      -0.00056775
Cu      53.56990667      55.35256144      50.00000000      -0.01713059       0.01034358      -0.00000000
Cu      51.79759219      55.39193805      51.79759219       0.00056775      -0.01042952       0.00056775
Cu      55.35256144      46.43009333      50.00000000       0.01034358       0.01713059      -0.00000000
Cu      55.35256144      50.00000000      46.43009333       0.01034358      -0.00000000       0.01713059
Cu      55.39193805      48.20240781      48.20240781      -0.01042952      -0.00056775      -0.00056775
Cu      55.45280637      50.00000000      50.00000000       0.02755802      -0.00000000       0.00000000
Cu      55.39193805      48.20240781      51.79759219      -0.01042952      -0.00056775       0.00056775
Cu      55.35256144      50.00000000      53.56990667       0.01034358      -0.00000000      -0.01713059
Cu      55.39193805      51.79759219      48.20240781      -0.01042952       0.00056775      -0.00056775
Cu      55.35256144      53.56990667      50.00000000       0.01034358      -0.01713059       0.00000000
Cu      55.39193805      51.79759219      51.79759219      -0.01042952       0.00056775       0.00056775
