116
Lattice="100.0 0.0 0.0 0.0 100.0 0.0 0.0 0.0 100.0" Properties=species:S:1:pos:R:3:forces:R:3 energy=-557.2171812114777 free_energy=-557.2171812114777 pbc="T T T"
Pt      44.33844249      46.21344768      50.00000000       0.09437093       0.06224231       0.00000000
Pt      46.21344768      44.33844249      50.00000000       0.06224231       0.09437093       0.00000000
Pt      45.77452874      45.77452874      47.67966442      -0.00022310      -0.00022310       0.00419672
Pt      45.77452874      45.77452874      52.32033558      -0.00022310      -0.00022310      -0.00419672
Pt      44.33844249      50.00000000      46.21344768       0.09437093       0.00000000       0.06224231
Pt      45.77452874      47.67966442      45.77452874      -0.00022310       0.00419672      -0.00022310
Pt      46.21344768      50.00000000      44.33844249       0.06224231       0.00000000       0.09437093
Pt      44.28214191      48.02205917      48.02205917      -0.00052070       0.00341185       0.00341185
Pt      44.15495965      50.00000000      50.00000000       0.37518533      -0.00000001       0.00000000
Pt      46.18739928      48.07245715      50.00000000      -0.01557952       0.00279725      -0.00000000
Pt      46.18739928      50.00000000      48.07245715      -0.01557952      -0.00000000       0.00279725
Pt      44.28214191      48.02205917      51.97794083      -0.00052070       0.00341185      -0.00341185
Pt      44.33844249      50.00000000      53.78655232       0.09437093       0.00000000      -0.06224231
Pt      45.77452874      47.67966442      54.22547126      -0.00022310       0.00419672       0.00022310
Pt      46.18739928      50.00000000      51.92754285      -0.01557952      -0.00000000      -0.00279725
Pt      46.21344768      50.00000000      55.66155751       0.06224231       0.00000000      -0.09437093
Pt      45.77452874      52.32033558      45.77452874      -0.00022310      -0.00419672      -0.00022310
Pt      44.28214191      51.97794083      48.02205917      -0.00052070      -0.00341185       0.00341185
Pt      44.33844249      53.78655232      50.00000000       0.09437093      -0.06224231       0.00000000
Pt      46.18739928      51.92754285      50.00000000      -0.01557952      -0.00279725      -0.00000000
Pt      45.77452874      54.22547126      47.67966442      -0.00022310       0.00022310       0.00419672
Pt      44.28214191      51.97794083      51.97794083      -0.00052070      -0.00341185      -0.00341185
Pt      45.77452874      52.32033558      54.22547126      -0.00022310      -0.00419672       0.00022310
Pt      45.77452874      54.22547126      52.32033558      -0.00022310       0.00022310      -0.00419672
Pt      46.21344768      55.66155751      50.00000000       0.06224231      -0.09437093       0.00000000
Pt      47.67966442      45.77452874      45.77452874       0.00419672      -0.00022310      -0.00022310
Pt      50.00000000      44.33844249      46.21344768       0.00000000       0.09437093       0.06224231
Pt      50.00000000      46.21344768      44.33844249       0.00000000       0.06224231       0.09437093
Pt      48.02205917      44.28214191      48.02205917       0.00341185      -0.00052070       0.00341185
Pt      48.07245715      46.18739928      50.00000000       0.00279725      -0.01557952      -0.00000000
Pt      50.00000000      44.15495965      50.00000000       0.00000000       0.37518532       0.00000000
Pt      50.00000000      46.18739928      48.07245715       0.00000000      -0.01557952       0.00279725
Pt      48.02205917      44.28214191      51.97794083       0.00341185      -0.00052070      -0.00341185
Pt      47.67966442      45.77452874      54.22547126       0.00419672      -0.00022310       0.00022310
Pt      50.00000000      44.33844249      53.78655232       0.00000000       0.09437093      -0.06224231
Pt      50.00000000      46.18739928      51.92754285       0.00000000      -0.01557952      -0.00279725
Pt      50.00000000      46.21344768      55.66155751       0.00000000       0.06224231      -0.09437093
Pt      48.02205917      48.02205917      44.28214191       0.00341185       0.00341185      -0.00052070
Pt      48.07245715      50.00000000      46.18739928       0.00279725      -0.00000000      -0.01557952
Pt      50.00000000      48.07245715      46.18739928      -0.00000000       0.00279725      -0.01557952
Pt      50.00000000      50.00000000      44.15495965      -0.00000000       0.00000000       0.37518532
Pt      47.89490534      47.89490534      47.89490534      -0.00028437      -0.00028437      -0.00028437
Pt      48.09652051      50.00000000      50.00000000      -0.00269346      -0.00000000      -0.00000000
Pt      50.00000000      48.09652051      50.00000000       0.00000000      -0.00269346      -0.00000000
Pt      50.00000000      50.00000000      48.09652051      -0.00000000       0.00000000      -0.00269346
Pt      47.89490534      47.89490534      52.10509466      -0.00028437      -0.00028437       0.00028437
Pt      48.07245715      50.00000000      53.81260072       0.00279725      -0.00000000       0.01557952
Pt      50.00000000      48.07245715      53.81260072      -0.00000000       0.00279725       0.01557952
Pt      50.00000000      50.00000000      51.90347949      -0.00000000       0.00000000       0.00269346
Pt      48.02205917      48.02205917      55.71785809       0.00341185       0.00341185       0.00052070
Pt      50.00000000      50.00000000      55.84504035      -0.00000001       0.00000000      -0.37518534
Pt      48.02205917      51.97794083      44.28214191       0.00341185      -0.00341185      -0.00052070
Pt      47.67966442      54.22547126      45.77452874       0.00419672       0.00022310      -0.00022310
Pt      50.00000000      51.92754285      46.18739928      -0.00000000      -0.00279725      -0.01557952
Pt      50.00000000      53.78655232      44.33844249       0.00000000      -0.06224231       0.09437093
Pt      47.89490534      52.10509466      47.89490534      -0.00028437       0.00028437      -0.00028437
Pt      48.07245715      53.81260072      50.00000000       0.00279725       0.01557952      -0.00000000
Pt      50.00000000      51.90347949      50.00000000       0.00000000       0.00269346      -0.00000000
Pt      50.00000000      53.81260072      48.07245715      -0.00000000       0.01557952       0.00279725
Pt      47.89490534      52.10509466      52.10509466      -0.00028437       0.00028437       0.00028437
Pt      47.67966442      54.22547126      54.22547126       0.00419672       0.00022310       0.00022310
Pt      50.00000000      51.92754285      53.81260072      -0.00000000      -0.00279725       0.01557952
Pt      50.00000000      53.81260072      51.92754285       0.00000000       0.01557952      -0.00279725
Pt      48.02205917      51.97794083      55.71785809       0.00341185      -0.00341185       0.00052070
Pt      50.00000000      53.78655232      55.66155751       0.00000000      -0.06224231      -0.09437093
Pt      50.00000000      55.66155751      46.21344768       0.00000000      -0.09437093       0.06224231
Pt      48.02205917      55.71785809      48.02205917       0.00341185       0.00052070       0.00341185
Pt      50.00000000      55.84504035      50.00000000       0.00000000      -0.37518533      -0.00000000
Pt      48.02205917      55.71785809      51.97794083       0.00341185       0.00052070      -0.00341185
Pt      50.00000000      55.66155751      53.78655232       0.00000000      -0.09437093      -0.06224231
Pt      52.32033558      45.77452874      45.77452874      -0.00419672      -0.00022310      -0.00022310
Pt      51.97794083      44.28214191      48.02205917      -0.00341185      -0.00052070       0.00341185
Pt      51.92754285      46.18739928      50.00000000      -0.00279725      -0.01557952      -0.00000000
Pt      53.78655232      44.33844249      50.00000000      -0.06224231       0.09437093       0.00000000
Pt      54.22547126      45.77452874      47.67966442       0.00022310      -0.00022310       0.00419672
Pt      51.97794083      44.28214191      51.97794083      -0.00341185      -0.00052070      -0.00341185
Pt      52.32033558      45.77452874      54.22547126      -0.00419672      -0.00022310       0.00022310
Pt      54.22547126      45.77452874      52.32033558       0.00022310      -0.00022310      -0.00419672
Pt      51.97794083      48.02205917      44.28214191      -0.00341185       0.00341185      -0.00052070
Pt      51.92754285      50.00000000      46.18739928      -0.00279725      -0.00000000      -0.01557952
Pt      54.22547126      47.67966442      45.77452874       0.00022310       0.00419672      -0.00022310
Pt      53.78655232      50.00000000      44.33844249      -0.06224231       0.00000000       0.09437093
Pt      52.10509466      47.89490534      47.89490534       0.00028437      -0.00028437      -0.00028437
Pt      51.90347949      50.00000000      50.00000000       0.00269346      -0.00000000      -0.00000000
Pt      53.81260072      48.07245715      50.00000000       0.01557952       0.00279725      -0.00000000
Pt      53.81260072      50.00000000      48.07245715       0.01557952      -0.00000000       0.00279725
Pt      52.10509466      47.89490534      52.10509466       0.00028437      -0.00028437       0.00028437
Pt      51.92754285      50.00000000      53.81260072      -0.00279725      -0.00000000       0.01557952
Pt      54.22547126      47.67966442      54.22547126       0.00022310       0.00419672       0.00022310
Pt      53.81260072      50.00000000      51.92754285       0.01557952      -0.00000000      -0.00279725
Pt      51.97794083      48.02205917      55.71785809      -0.00341185       0.00341185       0.00052070
Pt      53.78655232      50.00000000      55.66155751      -0.06224231       0.00000000      -0.09437093
Pt      51.97794083      51.97794083      44.28214191      -0.00341185      -0.00341185      -0.00052070
Pt      52.32033558      54.22547126      45.77452874      -0.00419672       0.00022310      -0.00022310
Pt      54.22547126      52.32033558      45.77452874       0.00022310      -0.00419672      -0.00022310
Pt      52.10509466      52.10509466      47.89490534       0.00028437       0.00028437      -0.00028437
Pt      51.92754285      53.81260072      50.00000000      -0.00279725       0.01557952      -0.00000000
Pt      53.81260072      51.92754285      50.00000000       0.01557952      -0.00279725      -0.00000000
Pt      54.22547126      54.22547126      47.67966442       0.00022310       0.00022310       0.00419672
Pt      52.10509466      52.10509466      52.10509466       0.00028437       0.00028437       0.00028437
Pt      52.32033558      54.22547126      54.22547126      -0.00419672       0.00022310       0.00022310
Pt      54.22547126      52.32033558      54.22547126       0.00022310      -0.00419672       0.00022310
Pt      54.22547126      54.22547126      52.32033558       0.00022310       0.00022310      -0.00419672
Pt      51.97794083      51.97794083      55.71785809      -0.00341185      -0.00341185       0.00052070
Pt      51.97794083      55.71785809      48.02205917      -0.00341185       0.00052070       0.00341185
Pt      53.78655232      55.66155751      50.00000000      -0.06224231      -0.09437093       0.00000000
Pt      51.97794083      55.71785809      51.97794083      -0.00341185       0.00052070      -0.00341185
Pt      55.66155751      46.21344768      50.00000000      -0.09437093       0.06224231       0.00000000
Pt      55.66155751      50.00000000      46.21344768      -0.09437093       0.00000000       0.06224231
Pt      55.71785809      48.02205917      48.02205917       0.00052070       0.00341185       0.00341185
Pt      55.84504035      50.00000000      50.00000000      -0.37518534      -0.00000001       0.00000000
Pt      55.71785809      48.02205917      51.97794083       0.00052070       0.00341185      -0.00341185
Pt      55.66155751      50.00000000      53.78655232      -0.09437093       0.00000000      -0.06224231
Pt      55.71785809      51.97794083      48.02205917       0.00052070      -0.00341185       0.00341185
Pt      55.66155751      53.78655232      50.00000000      -0.09437093      -0.06224231       0.00000000
Pt      55.71785809      51.97794083      51.97794083       0.00052070      -0.00341185      -0.00341185
