116
Lattice="100.0 0.0 0.0 0.0 100.0 0.0 0.0 0.0 100.0" Properties=species:S:1:pos:R:3:forces:R:3 energy=-755.4896073833829 free_energy=-755.4896073833829 pbc="T T T"
Fe      44.85538058      46.59343924      50.00000000      -0.01320423       0.01932869       0.00000000
Fe      46.59343924      44.85538058      50.00000000       0.01932869      -0.01320423       0.00000000
Fe      46.53745625      46.53745625      48.28990320       0.00885619       0.00885619      -0.00001946
Fe      46.53745625      46.53745625      51.71009680       0.00885619       0.00885619       0.00001946
Fe      44.85538058      50.00000000      46.59343924      -0.01320423      -0.00000000       0.01932869
Fe      46.53745625      48.28990320      46.53745625       0.00885619      -0.00001946       0.00885619
Fe      46.59343924      50.00000000      44.85538058       0.01932869      -0.00000000      -0.01320423
Fe      44.83502224      48.32305456      48.32305456       0.01825551       0.00232780       0.00232780
Fe      44.83252007      50.00000000      50.00000000      -0.01914993       0.00000000      -0.00000000
Fe      46.53392756      48.25572513      50.00000000       0.00523481      -0.04803258       0.00000000
Fe      46.53392756      50.00000000      48.25572513       0.00523481       0.00000000      -0.04803258
Fe      44.83502224      48.32305456      51.67694544       0.01825551       0.00232780      -0.00232780
Fe      44.85538058      50.00000000      53.40656076      -0.01320423      -0.00000000      -0.01932869
Fe      46.53745625      48.28990320      53.46254375       0.00885619      -0.00001946      -0.00885619
Fe      46.53392756      50.00000000      51.74427487       0.00523481      -0.00000000       0.04803258
Fe      46.59343924      50.00000000      55.14461942       0.01932869       0.00000000       0.01320423
Fe      46.53745625      51.71009680      46.53745625       0.00885619       0.00001946       0.00885619
Fe      44.83502224      51.67694544      48.32305456       0.01825551      -0.00232780       0.00232780
Fe      44.85538058      53.40656076      50.00000000      -0.01320423      -0.01932869       0.00000000
Fe      46.53392756      51.74427487      50.00000000       0.00523481       0.04803258      -0.00000000
Fe      46.53745625      53.46254375      48.28990320       0.00885619      -0.00885619      -0.00001946
Fe      44.83502224      51.67694544      51.67694544       0.01825551      -0.00232780      -0.00232780
Fe      46.53745625      51.71009680      53.46254375       0.00885619       0.00001946      -0.00885619
Fe      46.53745625      53.46254375      51.71009680       0.00885619      -0.00885619       0.00001946
Fe      46.59343924      55.14461942      50.00000000       0.01932869       0.01320423       0.00000000
Fe      48.28990320      46.53745625      46.53745625      -0.00001946       0.00885619       0.00885619
Fe      50.00000000      44.85538058      46.59343924      -0.00000000      -0.01320423       0.01932869
Fe      50.00000000      46.59343924      44.85538058       0.00000000       0.01932869      -0.01320423
Fe      48.32305456      44.83502224      48.32305456       0.00232780       0.01825551       0.00232780
Fe      48.25572513      46.53392756      50.00000000      -0.04803258       0.00523481       0.00000000
Fe      50.00000000      44.83252007      50.00000000       0.00000000      -0.01914993      -0.00000000
Fe      50.00000000      46.53392756      48.25572513      -0.00000000       0.00523481      -0.04803258
Fe      48.32305456      44.83502224      51.67694544       0.00232780       0.01825551      -0.00232780
Fe      48.28990320      46.53745625      53.46254375      -0.00001946       0.00885619      -0.00885619
Fe      50.00000000      44.85538058      53.40656076       0.00000000      -0.01320423      -0.01932869
Fe      50.00000000      46.53392756      51.74427487      -0.00000000       0.00523481       0.04803258
Fe      50.00000000      46.59343924      55.14461942      -0.00000000       0.01932869       0.01320423
Fe      48.32305456      48.32305456      44.83502224       0.00232780       0.00232780       0.01825551
Fe      48.25572513      50.00000000      46.53392756      -0.04803258       0.00000000       0.00523481
Fe      50.00000000      48.25572513      46.53392756      -0.00000000      -0.04803258       0.00523481
Fe      50.00000000      50.00000000      44.83252007      -0.00000000      -0.00000000      -0.01914993
Fe      48.23224278      48.23224278      48.23224278      -0.01187882      -0.01187882      -0.01187882
Fe      48.28696078      50.00000000      50.00000000       0.03430504       0.00000000      -0.00000000
Fe      50.00000000      48.28696078      50.00000000       0.00000000       0.03430504      -0.00000000
Fe      50.00000000      50.00000000      48.28696078       0.00000000       0.00000000       0.03430504
Fe      48.23224278      48.23224278      51.76775722      -0.01187882      -0.01187882       0.01187882
Fe      48.25572513      50.00000000      53.46607244      -0.04803258      -0.00000000      -0.00523481
Fe      50.00000000      48.25572513      53.46607244      -0.00000000      -0.04803258      -0.00523481
Fe      50.00000000      50.00000000      51.71303922       0.00000000       0.00000000      -0.03430504
Fe      48.32305456      48.32305456      55.16497776       0.00232780       0.00232780      -0.01825551
Fe      50.00000000      50.00000000      55.16747993       0.00000000       0.00000000       0.01914993
Fe      48.32305456      51.67694544      44.83502224       0.00232780      -0.00232780       0.01825551
Fe      48.28990320      53.46254375      46.53745625      -0.00001946      -0.00885619       0.00885619
Fe      50.00000000      51.74427487      46.53392756      -0.00000000       0.04803258       0.00523481
Fe      50.00000000      53.40656076      44.85538058       0.00000000      -0.01932869      -0.01320423
Fe      48.23224278      51.76775722      48.23224278      -0.01187882       0.01187882      -0.01187882
Fe      48.25572513      53.46607244      50.00000000      -0.04803258      -0.00523481       0.00000000
Fe      50.00000000      51.71303922      50.00000000       0.00000000      -0.03430504      -0.00000000
Fe      50.00000000      53.46607244      48.25572513       0.00000000      -0.00523481      -0.04803258
Fe      48.23224278      51.76775722      51.76775722      -0.01187882       0.01187882       0.01187882
Fe      48.28990320      53.46254375      53.46254375      -0.00001946      -0.00885619      -0.00885619
Fe      50.00000000      51.74427487      53.46607244       0.00000000       0.04803258      -0.00523481
Fe      50.00000000      53.46607244      51.74427487      -0.00000000      -0.00523481       0.04803258
Fe      48.32305456      51.67694544      55.16497776       0.00232780      -0.00232780      -0.01825551
Fe      50.00000000      53.40656076      55.14461942      -0.00000000      -0.01932869       0.01320423
Fe      50.00000000      55.14461942      46.59343924      -0.00000000       0.01320423       0.01932869
Fe      48.32305456      55.16497776      48.32305456       0.00232780      -0.01825551       0.00232780
Fe      50.00000000      55.16747993      50.00000000       0.00000000       0.01914993       0.00000000
Fe      48.32305456      55.16497776      51.67694544       0.00232780      -0.01825551      -0.00232780
Fe      50.00000000      55.14461942      53.40656076      -0.00000000       0.01320423      -0.01932869
Fe      51.71009680      46.53745625      46.53745625       0.00001946       0.00885619       0.00885619
Fe      51.67694544      44.83502224      48.32305456      -0.00232780       0.01825551       0.00232780
Fe      51.74427487      46.53392756      50.00000000       0.04803258       0.00523481      -0.00000000
Fe      53.40656076      44.85538058      50.00000000      -0.01932869      -0.01320423      -0.00000000
Fe      53.46254375      46.53745625      48.28990320      -0.00885619       0.00885619      -0.00001946
Fe      51.67694544      44.83502224      51.67694544      -0.00232780       0.01825551      -0.00232780
Fe      51.71009680      46.53745625      53.46254375       0.00001946       0.00885619      -0.00885619
Fe      53.46254375      46.53745625      51.71009680      -0.00885619       0.00885619       0.00001946
Fe      51.67694544      48.32305456      44.83502224      -0.00232780       0.00232780       0.01825551
Fe      51.74427487      50.00000000      46.53392756       0.04803258      -0.00000000       0.00523481
Fe      53.46254375      48.28990320      46.53745625      -0.00885619      -0.00001946       0.00885619
Fe      53.40656076      50.00000000      44.85538058      -0.01932869      -0.00000000      -0.01320423
Fe      51.76775722      48.23224278      48.23224278       0.01187882      -0.01187882      -0.01187882
Fe      51.71303922      50.00000000      50.00000000      -0.03430504       0.00000000       0.00000000
Fe      53.46607244      48.25572513      50.00000000      -0.00523481      -0.04803258       0.00000000
Fe      53.46607244      50.00000000      48.25572513      -0.00523481       0.00000000      -0.04803258
Fe      51.76775722      48.23224278      51.76775722       0.01187882      -0.01187882       0.01187882
Fe      51.74427487      50.00000000      53.46607244       0.04803258       0.00000000      -0.00523481
Fe      53.46254375      48.28990320      53.46254375      -0.00885619      -0.00001946      -0.00885619
Fe      53.46607244      50.00000000      51.74427487      -0.00523481      -0.00000000       0.04803258
Fe      51.67694544      48.32305456      55.16497776      -0.00232780       0.00232780      -0.01825551
Fe      53.40656076      50.00000000      55.14461942      -0.01932869       0.00000000       0.01320423
Fe      51.67694544      51.67694544      44.83502224      -0.00232780      -0.00232780       0.01825551
Fe      51.71009680      53.46254375      46.53745625       0.00001946      -0.00885619       0.00885619
Fe      53.46254375      51.71009680      46.53745625      -0.00885619       0.00001946       0.00885619
Fe      51.76775722      51.76775722      48.23224278       0.01187882       0.01187882      -0.01187882
Fe      51.74427487      53.46607244      50.00000000       0.04803258      -0.00523481      -0.00000000
Fe      53.46607244      51.74427487      50.00000000      -0.00523481       0.04803258      -0.00000000
Fe      53.46254375      53.46254375      48.28990320      -0.00885619      -0.00885619      -0.00001946
Fe      51.76775722      51.76775722      51.76775722       0.01187882       0.01187882       0.01187882
Fe      51.71009680      53.46254375      53.46254375       0.00001946      -0.00885619      -0.00885619
Fe      53.46254375      51.71009680      53.46254375      -0.00885619       0.00001946      -0.00885619
Fe      53.46254375      53.46254375      51.71009680      -0.00885619      -0.00885619       0.00001946
Fe      51.67694544      51.67694544      55.16497776      -0.00232780      -0.00232780      -0.01825551
Fe      51.67694544      55.16497776      48.32305456      -0.00232780      -0.01825551       0.00232780
Fe      53.40656076      55.14461942      50.00000000      -0.01932869       0.01320423       0.00000000
Fe      51.67694544      55.16497776      51.67694544      -0.00232780      -0.01825551      -0.00232780
Fe      55.14461942      46.59343924      50.00000000       0.01320423       0.01932869      -0.00000000
Fe      55.14461942      50.00000000      46.59343924       0.01320423       0.00000000       0.01932869
Fe      55.16497776      48.32305456      48.32305456      -0.01825551       0.00232780       0.00232780
Fe      55.16747993      50.00000000      50.00000000       0.01914993       0.00000000      -0.00000000
Fe      55.16497776      48.32305456      51.67694544      -0.01825551       0.00232780      -0.00232780
Fe      55.14461942      50.00000000      53.40656076       0.01320423      -0.00000000      -0.01932869
Fe      55.16497776      51.67694544      48.32305456      -0.01825551      -0.00232780       0.00232780
Fe      55.14461942      53.40656076      50.00000000       0.01320423      -0.01932869       0.00000000
Fe      55.16497776      51.67694544      51.67694544      -0.01825551      -0.00232780      -0.00232780
