116
Lattice="100.0 0.0 0.0 0.0 100.0 0.0 0.0 0.0 100.0" Properties=species:S:1:pos:R:3:forces:R:3 energy=-1280.0587527766725 free_energy=-1280.0587527766725 pbc="T T T"
W       44.32326282      46.14929186      50.00000000      -0.00970458      -0.00243873       0.00000000
W       46.14929186      44.32326282      50.00000000      -0.00243873      -0.00970458       0.00000000
W       45.83802539      45.83802539      47.83493175       0.01312967       0.01312967      -0.01945631
W       45.83802539      45.83802539      52.16506825       0.01312967       0.01312967       0.01945631
W       44.32326282      50.00000000      46.14929186      -0.00970458      -0.00000000      -0.00243873
W       45.83802539      47.83493175      45.83802539       0.01312967      -0.01945631       0.01312967
W       46.14929186      50.00000000      44.32326282      -0.00243873       0.00000000      -0.00970458
W       44.29090518      48.06748700      48.06748700      -0.02391365       0.01722848       0.01722848
W       44.08394832      50.00000000      50.00000000       0.00204422      -0.00000000       0.00000000
W       46.07228372      47.93317638      50.00000000       0.01456468      -0.00057003       0.00000000
W       46.07228372      50.00000000      47.93317638       0.01456468      -0.00000000      -0.00057003
W       44.29090518      48.06748700      51.93251300      -0.02391365       0.01722848      -0.01722848
W       44.32326282      50.00000000      53.85070814      -0.00970458      -0.00000000       0.00243873
W       45.83802539      47.83493175      54.16197461       0.01312967      -0.01945631      -0.01312967
W       46.07228372      50.00000000      52.06682362       0.01456468      -0.00000000       0.00057003
W       46.14929186      50.00000000      55.67673718      -0.00243873      -0.00000000       0.00970458
W       45.83802539      52.16506825      45.83802539       0.01312967       0.01945631       0.01312967
W       44.29090518      51.93251300      48.06748700      -0.02391365      -0.01722848       0.01722848
W       44.32326282      53.85070814      50.00000000      -0.00970458       0.00243873       0.00000000
W       46.07228372      52.06682362      50.00000000       0.01456468       0.00057003      -0.00000000
W       45.83802539      54.16197461      47.83493175       0.01312967      -0.01312967      -0.01945631
W       44.29090518      51.93251300      51.93251300      -0.02391365      -0.01722848      -0.01722848
W       45.83802539      52.16506825      54.16197461       0.01312967       0.01945631      -0.01312967
W       45.83802539      54.16197461      52.16506825       0.01312967      -0.01312967       0.01945631
W       46.14929186      55.67673718      50.00000000      -0.00243873       0.00970458       0.00000000
W       47.83493175      45.83802539      45.83802539      -0.01945631       0.01312967       0.01312967
W       50.00000000      44.32326282      46.14929186      -0.00000000      -0.00970458      -0.00243873
W       50.00000000      46.14929186      44.32326282       0.00000000      -0.00243873      -0.00970458
W       48.06748700      44.29090518      48.06748700       0.01722848      -0.02391365       0.01722848
W       47.93317638      46.07228372      50.00000000      -0.00057003       0.01456468       0.00000000
W       50.00000000      44.08394832      50.00000000      -0.00000000       0.00204422       0.00000000
W       50.00000000      46.07228372      47.93317638      -0.00000000       0.01456468      -0.00057003
W       48.06748700      44.29090518      51.93251300       0.01722848      -0.02391365      -0.01722848
W       47.83493175      45.83802539      54.16197461      -0.01945631       0.01312967      -0.01312967
W       50.00000000      44.32326282      53.85070814      -0.00000000      -0.00970458       0.00243873
W       50.00000000      46.07228372      52.06682362      -0.00000000       0.01456468       0.00057003
W       50.00000000      46.14929186      55.67673718      -0.00000000      -0.00243873       0.00970458
W       48.06748700      48.06748700      44.29090518       0.01722848       0.01722848      -0.02391365
W       47.93317638      50.00000000      46.07228372      -0.00057003       0.00000000       0.01456468
W       50.00000000      47.93317638      46.07228372       0.00000000      -0.00057003       0.01456468
W       50.00000000      50.00000000      44.08394832       0.00000000       0.00000000       0.00204422
W       47.78340824      47.78340824      47.78340824      -0.01000892      -0.01000892      -0.01000892
W       48.05337633      50.00000000      50.00000000      -0.03402015      -0.00000000      -0.00000000
W       50.00000000      48.05337633      50.00000000      -0.00000000      -0.03402015      -0.00000000
W       50.00000000      50.00000000      48.05337633      -0.00000000      -0.00000000      -0.03402015
W       47.78340824      47.78340824      52.21659176      -0.01000892      -0.01000892       0.01000892
W       47.93317638      50.00000000      53.92771628      -0.00057003       0.00000000      -0.01456468
W       50.00000000      47.93317638      53.92771628       0.00000000      -0.00057003      -0.01456468
W       50.00000000      50.00000000      51.94662367       0.00000000       0.00000000       0.03402015
W       48.06748700      48.06748700      55.70909482       0.01722848       0.01722848       0.02391365
W       50.00000000      50.00000000      55.91605168      -0.00000000      -0.00000000      -0.00204422
W       48.06748700      51.93251300      44.29090518       0.01722848      -0.01722848      -0.02391365
W       47.83493175      54.16197461      45.83802539      -0.01945631      -0.01312967       0.01312967
W       50.00000000      52.06682362      46.07228372      -0.00000000       0.00057003       0.01456468
W       50.00000000      53.85070814      44.32326282      -0.00000000       0.00243873      -0.00970458
W       47.78340824      52.21659176      47.78340824      -0.01000892       0.01000892      -0.01000892
W       47.93317638      53.92771628      50.00000000      -0.00057003      -0.01456468       0.00000000
W       50.00000000      51.94662367      50.00000000       0.00000000       0.03402015       0.00000000
W       50.00000000      53.92771628      47.93317638       0.00000000      -0.01456468      -0.00057003
W       47.78340824      52.21659176      52.21659176      -0.01000892       0.01000892       0.01000892
W       47.83493175      54.16197461      54.16197461      -0.01945631      -0.01312967      -0.01312967
W       50.00000000      52.06682362      53.92771628      -0.00000000       0.00057003      -0.01456468
W       50.00000000      53.92771628      52.06682362      -0.00000000      -0.01456468       0.00057003
W       48.06748700      51.93251300      55.70909482       0.01722848      -0.01722848       0.02391365
W       50.00000000      53.85070814      55.67673718      -0.00000000       0.00243873       0.00970458
W       50.00000000      55.67673718      46.14929186      -0.00000000       0.00970458      -0.00243873
W       48.06748700      55.70909482      48.06748700       0.01722848       0.02391365       0.01722848
W       50.00000000      55.91605168      50.00000000      -0.00000000      -0.00204422      -0.00000000
W       48.06748700      55.70909482      51.93251300       0.01722848       0.02391365      -0.01722848
W       50.00000000      55.67673718      53.85070814      -0.00000000       0.00970458       0.00243873
W       52.16506825      45.83802539      45.83802539       0.01945631       0.01312967       0.01312967
W       51.93251300      44.29090518      48.06748700      -0.01722848      -0.02391365       0.01722848
W       52.06682362      46.07228372      50.00000000       0.00057003       0.01456468      -0.00000000
W       53.85070814      44.32326282      50.00000000       0.00243873      -0.00970458       0.00000000
W       54.16197461      45.83802539      47.83493175      -0.01312967       0.01312967      -0.01945631
W       51.93251300      44.29090518      51.93251300      -0.01722848      -0.02391365      -0.01722848
W       52.16506825      45.83802539      54.16197461       0.01945631       0.01312967      -0.01312967
W       54.16197461      45.83802539      52.16506825      -0.01312967       0.01312967       0.01945631
W       51.93251300      48.06748700      44.29090518      -0.01722848       0.01722848      -0.02391365
W       52.06682362      50.00000000      46.07228372       0.00057003      -0.00000000       0.01456468
W       54.16197461      47.83493175      45.83802539      -0.01312967      -0.01945631       0.01312967
W       53.85070814      50.00000000      44.32326282       0.00243873      -0.00000000      -0.00970458
W       52.21659176      47.78340824      47.78340824       0.01000892      -0.01000892      -0.01000892
W       51.94662367      50.00000000      50.00000000       0.03402015       0.00000000       0.00000000
W       53.92771628      47.93317638      50.00000000      -0.01456468      -0.00057003       0.00000000
W       53.92771628      50.00000000      47.93317638      -0.01456468       0.00000000      -0.00057003
W       52.21659176      47.78340824      52.21659176       0.01000892      -0.01000892       0.01000892
W       52.06682362      50.00000000      53.92771628       0.00057003      -0.00000000      -0.01456468
W       54.16197461      47.83493175      54.16197461      -0.01312967      -0.01945631      -0.01312967
W       53.92771628      50.00000000      52.06682362      -0.01456468      -0.00000000       0.00057003
W       51.93251300      48.06748700      55.70909482      -0.01722848       0.01722848       0.02391365
W       53.85070814      50.00000000      55.67673718       0.00243873      -0.00000000       0.00970458
W       51.93251300      51.93251300      44.29090518      -0.01722848      -0.01722848      -0.02391365
W       52.16506825      54.16197461      45.83802539       0.01945631      -0.01312967       0.01312967
W       54.16197461      52.16506825      45.83802539      -0.01312967       0.01945631       0.01312967
W       52.21659176      52.21659176      47.78340824       0.01000892       0.01000892      -0.01000892
W       52.06682362      53.92771628      50.00000000       0.00057003      -0.01456468      -0.00000000
W       53.92771628      52.06682362      50.00000000      -0.01456468       0.00057003      -0.00000000
W       54.16197461      54.16197461      47.83493175      -0.01312967      -0.01312967      -0.01945631
W       52.21659176      52.21659176      52.21659176       0.01000892       0.01000892       0.01000892
W       52.16506825      54.16197461      54.16197461       0.01945631      -0.01312967      -0.01312967
W       54.16197461      52.16506825      54.16197461      -0.01312967       0.01945631      -0.01312967
W       54.16197461      54.16197461      52.16506825      -0.01312967      -0.01312967       0.01945631
W       51.93251300      51.93251300      55.70909482      -0.01722848      -0.01722848       0.02391365
W       51.93251300      55.70909482      48.06748700      -0.01722848       0.02391365       0.01722848
W       53.85070814      55.67673718      50.00000000       0.00243873       0.00970458      -0.00000000
W       51.93251300      55.70909482      51.93251300      -0.01722848       0.02391365      -0.01722848
W       55.67673718      46.14929186      50.00000000       0.00970458      -0.00243873       0.00000000
W       55.67673718      50.00000000      46.14929186       0.00970458      -0.00000000      -0.00243873
W       55.70909482      48.06748700      48.06748700       0.02391365       0.01722848       0.01722848
W       55.91605168      50.00000000      50.00000000      -0.00204422      -0.00000000      -0.00000000
W       55.70909482      48.06748700      51.93251300       0.02391365       0.01722848      -0.01722848
W       55.67673718      50.00000000      53.85070814       0.00970458      -0.00000000       0.00243873
W       55.70909482      51.93251300      48.06748700       0.02391365      -0.01722848       0.01722848
W       55.67673718      53.85070814      50.00000000       0.00970458       0.00243873      -0.00000000
W       55.70909482      51.93251300      51.93251300       0.02391365      -0.01722848      -0.01722848
